
     Program PWSCF v.6.4.1 starts on  3May2021 at 17:56:38 

     This program is part of the open-source Quantum ESPRESSO suite
     for quantum simulation of materials; please cite
         "P. Giannozzi et al., J. Phys.:Condens. Matter 21 395502 (2009);
         "P. Giannozzi et al., J. Phys.:Condens. Matter 29 465901 (2017);
          URL http://www.quantum-espresso.org", 
     in publications or presentations arising from this work. More details at
     http://www.quantum-espresso.org/quote

     Serial version
     Waiting for input...
     Reading input from standard input

     Current dimensions of program PWSCF are:
     Max number of different atomic species (ntypx) = 10
     Max number of k-points (npk) =  40000
     Max angular momentum in pseudopotentials (lmaxx) =  3

     Atomic positions and unit cell read from directory:
     ./tmp/Grafene.save/


     G-vector sticks info
     --------------------
     sticks:   dense  smooth     PW     G-vecs:    dense   smooth      PW
     Sum         241     241     85                26869    26869    5921



     bravais-lattice index     =            4
     lattice parameter (alat)  =       4.6500  a.u.
     unit-cell volume          =     783.6678 (a.u.)^3
     number of atoms/cell      =            2
     number of atomic types    =            1
     number of electrons       =         8.00
     number of Kohn-Sham states=           20
     kinetic-energy cutoff     =      40.0000  Ry
     charge density cutoff     =     160.0000  Ry
     Exchange-correlation      =  SLA  PZ   NOGX NOGC ( 1  1  0  0 0 0)

     celldm(1)=   4.650000  celldm(2)=   0.000000  celldm(3)=   9.000000
     celldm(4)=   0.000000  celldm(5)=   0.000000  celldm(6)=   0.000000

     crystal axes: (cart. coord. in units of alat)
               a(1) = (   1.000000   0.000000   0.000000 )  
               a(2) = (  -0.500000   0.866025   0.000000 )  
               a(3) = (   0.000000   0.000000   9.000000 )  

     reciprocal axes: (cart. coord. in units 2 pi/alat)
               b(1) = (  1.000000  0.577350 -0.000000 )  
               b(2) = (  0.000000  1.154701  0.000000 )  
               b(3) = (  0.000000 -0.000000  0.111111 )  


     PseudoPot. # 1 for C  read from file:
     ../../pseudo/C.pz-vbc.UPF
     MD5 check sum: ab53dd623bfeb79c5a7b057bc96eae20
     Pseudo is Norm-conserving, Zval =  4.0
     Generated by new atomic code, or converted to UPF format
     Using radial grid of  269 points,  1 beta functions with: 
                l(1) =   0

     atomic species   valence    mass     pseudopotential
        C              4.00    12.01070     C ( 1.00)

     24 Sym. Ops., with inversion, found


                                    s                        frac. trans.

      isym =  1     identity                                     

 cryst.   s( 1) = (     1          0          0      )
                  (     0          1          0      )
                  (     0          0          1      )

 cart.    s( 1) = (  1.0000000  0.0000000  0.0000000 )
                  (  0.0000000  1.0000000  0.0000000 )
                  (  0.0000000  0.0000000  1.0000000 )


      isym =  2     180 deg rotation - cart. axis [0,0,1]        

 cryst.   s( 2) = (    -1          0          0      )
                  (     0         -1          0      )
                  (     0          0          1      )

 cart.    s( 2) = ( -1.0000000  0.0000000  0.0000000 )
                  (  0.0000000 -1.0000000  0.0000000 )
                  (  0.0000000  0.0000000  1.0000000 )


      isym =  3     180 deg rotation - cart. axis [0,1,0]        

 cryst.   s( 3) = (    -1          0          0      )
                  (     1          1          0      )
                  (     0          0         -1      )

 cart.    s( 3) = ( -1.0000000  0.0000000  0.0000000 )
                  (  0.0000000  1.0000000  0.0000000 )
                  (  0.0000000  0.0000000 -1.0000000 )


      isym =  4     180 deg rotation - cart. axis [1,0,0]        

 cryst.   s( 4) = (     1          0          0      )
                  (    -1         -1          0      )
                  (     0          0         -1      )

 cart.    s( 4) = (  1.0000000  0.0000000  0.0000000 )
                  (  0.0000000 -1.0000000  0.0000000 )
                  (  0.0000000  0.0000000 -1.0000000 )


      isym =  5      60 deg rotation - cryst. axis [0,0,1]       

 cryst.   s( 5) = (     1          1          0      )
                  (    -1          0          0      )
                  (     0          0          1      )

 cart.    s( 5) = (  0.5000000 -0.8660254  0.0000000 )
                  (  0.8660254  0.5000000  0.0000000 )
                  (  0.0000000  0.0000000  1.0000000 )


      isym =  6      60 deg rotation - cryst. axis [0,0,-1]      

 cryst.   s( 6) = (     0         -1          0      )
                  (     1          1          0      )
                  (     0          0          1      )

 cart.    s( 6) = (  0.5000000  0.8660254  0.0000000 )
                  ( -0.8660254  0.5000000  0.0000000 )
                  (  0.0000000  0.0000000  1.0000000 )


      isym =  7     120 deg rotation - cryst. axis [0,0,1]       

 cryst.   s( 7) = (     0          1          0      )
                  (    -1         -1          0      )
                  (     0          0          1      )

 cart.    s( 7) = ( -0.5000000 -0.8660254  0.0000000 )
                  (  0.8660254 -0.5000000  0.0000000 )
                  (  0.0000000  0.0000000  1.0000000 )


      isym =  8     120 deg rotation - cryst. axis [0,0,-1]      

 cryst.   s( 8) = (    -1         -1          0      )
                  (     1          0          0      )
                  (     0          0          1      )

 cart.    s( 8) = ( -0.5000000  0.8660254  0.0000000 )
                  ( -0.8660254 -0.5000000  0.0000000 )
                  (  0.0000000  0.0000000  1.0000000 )


      isym =  9     180 deg rotation - cryst. axis [1,-1,0]      

 cryst.   s( 9) = (     0         -1          0      )
                  (    -1          0          0      )
                  (     0          0         -1      )

 cart.    s( 9) = (  0.5000000 -0.8660254  0.0000000 )
                  ( -0.8660254 -0.5000000  0.0000000 )
                  (  0.0000000  0.0000000 -1.0000000 )


      isym = 10     180 deg rotation - cryst. axis [2,1,0]       

 cryst.   s(10) = (     1          1          0      )
                  (     0         -1          0      )
                  (     0          0         -1      )

 cart.    s(10) = (  0.5000000  0.8660254  0.0000000 )
                  (  0.8660254 -0.5000000  0.0000000 )
                  (  0.0000000  0.0000000 -1.0000000 )


      isym = 11     180 deg rotation - cryst. axis [0,1,0]       

 cryst.   s(11) = (    -1         -1          0      )
                  (     0          1          0      )
                  (     0          0         -1      )

 cart.    s(11) = ( -0.5000000 -0.8660254  0.0000000 )
                  ( -0.8660254  0.5000000  0.0000000 )
                  (  0.0000000  0.0000000 -1.0000000 )


      isym = 12     180 deg rotation - cryst. axis [1,1,0]       

 cryst.   s(12) = (     0          1          0      )
                  (     1          0          0      )
                  (     0          0         -1      )

 cart.    s(12) = ( -0.5000000  0.8660254  0.0000000 )
                  (  0.8660254  0.5000000  0.0000000 )
                  (  0.0000000  0.0000000 -1.0000000 )


      isym = 13     inversion                                    

 cryst.   s(13) = (    -1          0          0      )
                  (     0         -1          0      )
                  (     0          0         -1      )

 cart.    s(13) = ( -1.0000000  0.0000000  0.0000000 )
                  (  0.0000000 -1.0000000  0.0000000 )
                  (  0.0000000  0.0000000 -1.0000000 )


      isym = 14     inv. 180 deg rotation - cart. axis [0,0,1]   

 cryst.   s(14) = (     1          0          0      )
                  (     0          1          0      )
                  (     0          0         -1      )

 cart.    s(14) = (  1.0000000  0.0000000  0.0000000 )
                  (  0.0000000  1.0000000  0.0000000 )
                  (  0.0000000  0.0000000 -1.0000000 )


      isym = 15     inv. 180 deg rotation - cart. axis [0,1,0]   

 cryst.   s(15) = (     1          0          0      )
                  (    -1         -1          0      )
                  (     0          0          1      )

 cart.    s(15) = (  1.0000000  0.0000000  0.0000000 )
                  (  0.0000000 -1.0000000  0.0000000 )
                  (  0.0000000  0.0000000  1.0000000 )


      isym = 16     inv. 180 deg rotation - cart. axis [1,0,0]   

 cryst.   s(16) = (    -1          0          0      )
                  (     1          1          0      )
                  (     0          0          1      )

 cart.    s(16) = ( -1.0000000  0.0000000  0.0000000 )
                  (  0.0000000  1.0000000  0.0000000 )
                  (  0.0000000  0.0000000  1.0000000 )


      isym = 17     inv.  60 deg rotation - cryst. axis [0,0,1]  

 cryst.   s(17) = (    -1         -1          0      )
                  (     1          0          0      )
                  (     0          0         -1      )

 cart.    s(17) = ( -0.5000000  0.8660254  0.0000000 )
                  ( -0.8660254 -0.5000000  0.0000000 )
                  (  0.0000000  0.0000000 -1.0000000 )


      isym = 18     inv.  60 deg rotation - cryst. axis [0,0,-1] 

 cryst.   s(18) = (     0          1          0      )
                  (    -1         -1          0      )
                  (     0          0         -1      )

 cart.    s(18) = ( -0.5000000 -0.8660254  0.0000000 )
                  (  0.8660254 -0.5000000  0.0000000 )
                  (  0.0000000  0.0000000 -1.0000000 )


      isym = 19     inv. 120 deg rotation - cryst. axis [0,0,1]  

 cryst.   s(19) = (     0         -1          0      )
                  (     1          1          0      )
                  (     0          0         -1      )

 cart.    s(19) = (  0.5000000  0.8660254  0.0000000 )
                  ( -0.8660254  0.5000000  0.0000000 )
                  (  0.0000000  0.0000000 -1.0000000 )


      isym = 20     inv. 120 deg rotation - cryst. axis [0,0,-1] 

 cryst.   s(20) = (     1          1          0      )
                  (    -1          0          0      )
                  (     0          0         -1      )

 cart.    s(20) = (  0.5000000 -0.8660254  0.0000000 )
                  (  0.8660254  0.5000000  0.0000000 )
                  (  0.0000000  0.0000000 -1.0000000 )


      isym = 21     inv. 180 deg rotation - cryst. axis [1,-1,0] 

 cryst.   s(21) = (     0          1          0      )
                  (     1          0          0      )
                  (     0          0          1      )

 cart.    s(21) = ( -0.5000000  0.8660254  0.0000000 )
                  (  0.8660254  0.5000000  0.0000000 )
                  (  0.0000000  0.0000000  1.0000000 )


      isym = 22     inv. 180 deg rotation - cryst. axis [2,1,0]  

 cryst.   s(22) = (    -1         -1          0      )
                  (     0          1          0      )
                  (     0          0          1      )

 cart.    s(22) = ( -0.5000000 -0.8660254  0.0000000 )
                  ( -0.8660254  0.5000000  0.0000000 )
                  (  0.0000000  0.0000000  1.0000000 )


      isym = 23     inv. 180 deg rotation - cryst. axis [0,1,0]  

 cryst.   s(23) = (     1          1          0      )
                  (     0         -1          0      )
                  (     0          0          1      )

 cart.    s(23) = (  0.5000000  0.8660254  0.0000000 )
                  (  0.8660254 -0.5000000  0.0000000 )
                  (  0.0000000  0.0000000  1.0000000 )


      isym = 24     inv. 180 deg rotation - cryst. axis [1,1,0]  

 cryst.   s(24) = (     0         -1          0      )
                  (    -1          0          0      )
                  (     0          0          1      )

 cart.    s(24) = (  0.5000000 -0.8660254  0.0000000 )
                  ( -0.8660254 -0.5000000  0.0000000 )
                  (  0.0000000  0.0000000  1.0000000 )


     point group D_6h(6/mmm)
     there are 12 classes
     the character table:

       E     2C6   2C3   C2    3C2'  3C2'' i     2S3   2S6   s_h   3s_d  3s_v 
A_1g   1.00  1.00  1.00  1.00  1.00  1.00  1.00  1.00  1.00  1.00  1.00  1.00
A_2g   1.00  1.00  1.00  1.00 -1.00 -1.00  1.00  1.00  1.00  1.00 -1.00 -1.00
B_1g   1.00 -1.00  1.00 -1.00  1.00 -1.00  1.00 -1.00  1.00 -1.00  1.00 -1.00
B_2g   1.00 -1.00  1.00 -1.00 -1.00  1.00  1.00 -1.00  1.00 -1.00 -1.00  1.00
E_1g   2.00  1.00 -1.00 -2.00  0.00  0.00  2.00  1.00 -1.00 -2.00  0.00  0.00
E_2g   2.00 -1.00 -1.00  2.00  0.00  0.00  2.00 -1.00 -1.00  2.00  0.00  0.00
A_1u   1.00  1.00  1.00  1.00  1.00  1.00 -1.00 -1.00 -1.00 -1.00 -1.00 -1.00
A_2u   1.00  1.00  1.00  1.00 -1.00 -1.00 -1.00 -1.00 -1.00 -1.00  1.00  1.00
B_1u   1.00 -1.00  1.00 -1.00  1.00 -1.00 -1.00  1.00 -1.00  1.00 -1.00  1.00
B_2u   1.00 -1.00  1.00 -1.00 -1.00  1.00 -1.00  1.00 -1.00  1.00  1.00 -1.00
E_1u   2.00  1.00 -1.00 -2.00  0.00  0.00 -2.00 -1.00  1.00  2.00  0.00  0.00
E_2u   2.00 -1.00 -1.00  2.00  0.00  0.00 -2.00  1.00  1.00 -2.00  0.00  0.00

     the symmetry operations in each class and the name of the first element:

     E        1
          identity                                               
     2C6      5    6
           60 deg rotation - cryst. axis [0,0,1]                 
     2C3      7    8
          120 deg rotation - cryst. axis [0,0,1]                 
     C2       2
          180 deg rotation - cart. axis [0,0,1]                  
     3C2'     4   12   11
          180 deg rotation - cart. axis [1,0,0]                  
     3C2''    3    9   10
          180 deg rotation - cart. axis [0,1,0]                  
     i       13
          inversion                                              
     2S3     17   18
          inv.  60 deg rotation - cryst. axis [0,0,1]            
     2S6     19   20
          inv. 120 deg rotation - cryst. axis [0,0,1]            
     s_h     14
          inv. 180 deg rotation - cart. axis [0,0,1]             
     3s_d    16   24   23
          inv. 180 deg rotation - cart. axis [1,0,0]             
     3s_v    15   21   22
          inv. 180 deg rotation - cart. axis [0,1,0]             

   Cartesian axes

     site n.     atom                  positions (alat units)
         1           C   tau(   1) = (   0.0000000   0.5773503   0.0000000  )
         2           C   tau(   2) = (   0.5000000   0.2886751   0.0000000  )

   Crystallographic axes

     site n.     atom                  positions (cryst. coord.)
         1           C   tau(   1) = (  0.3333334  0.6666667  0.0000000  )
         2           C   tau(   2) = (  0.6666666  0.3333333  0.0000000  )

     number of k points=   240  gaussian smearing, width (Ry)=  0.0300
                       cart. coord. in units 2pi/alat
        k(    1) = (   0.0166667   0.0288675  -0.0555556), wk =   0.0044444
        k(    2) = (   0.0166667   0.0673575  -0.0555556), wk =   0.0088889
        k(    3) = (   0.0166667   0.1058475  -0.0555556), wk =   0.0088889
        k(    4) = (   0.0166667   0.1443376  -0.0555556), wk =   0.0088889
        k(    5) = (   0.0166667   0.1828276  -0.0555556), wk =   0.0088889
        k(    6) = (   0.0166667   0.2213176  -0.0555556), wk =   0.0088889
        k(    7) = (   0.0166667   0.2598076  -0.0555556), wk =   0.0088889
        k(    8) = (   0.0166667   0.2982976  -0.0555556), wk =   0.0088889
        k(    9) = (   0.0166667   0.3367877  -0.0555556), wk =   0.0088889
        k(   10) = (   0.0166667   0.3752777  -0.0555556), wk =   0.0088889
        k(   11) = (   0.0166667   0.4137677  -0.0555556), wk =   0.0088889
        k(   12) = (   0.0166667   0.4522577  -0.0555556), wk =   0.0088889
        k(   13) = (   0.0166667   0.4907477  -0.0555556), wk =   0.0088889
        k(   14) = (   0.0166667   0.5292377  -0.0555556), wk =   0.0088889
        k(   15) = (   0.0166667   0.5677278  -0.0555556), wk =   0.0088889
        k(   16) = (   0.0166667  -0.5484828  -0.0555556), wk =   0.0088889
        k(   17) = (   0.0166667  -0.5099927  -0.0555556), wk =   0.0088889
        k(   18) = (   0.0166667  -0.4715027  -0.0555556), wk =   0.0088889
        k(   19) = (   0.0166667  -0.4330127  -0.0555556), wk =   0.0088889
        k(   20) = (   0.0166667  -0.3945227  -0.0555556), wk =   0.0088889
        k(   21) = (   0.0166667  -0.3560327  -0.0555556), wk =   0.0088889
        k(   22) = (   0.0166667  -0.3175426  -0.0555556), wk =   0.0088889
        k(   23) = (   0.0166667  -0.2790526  -0.0555556), wk =   0.0088889
        k(   24) = (   0.0166667  -0.2405626  -0.0555556), wk =   0.0088889
        k(   25) = (   0.0166667  -0.2020726  -0.0555556), wk =   0.0088889
        k(   26) = (   0.0166667  -0.1635826  -0.0555556), wk =   0.0088889
        k(   27) = (   0.0166667  -0.1250926  -0.0555556), wk =   0.0088889
        k(   28) = (   0.0166667  -0.0866025  -0.0555556), wk =   0.0088889
        k(   29) = (   0.0166667  -0.0481125  -0.0555556), wk =   0.0088889
        k(   30) = (   0.0166667  -0.0096225  -0.0555556), wk =   0.0044444
        k(   31) = (   0.0500000   0.0866025  -0.0555556), wk =   0.0044444
        k(   32) = (   0.0500000   0.1250926  -0.0555556), wk =   0.0088889
        k(   33) = (   0.0500000   0.1635826  -0.0555556), wk =   0.0088889
        k(   34) = (   0.0500000   0.2020726  -0.0555556), wk =   0.0088889
        k(   35) = (   0.0500000   0.2405626  -0.0555556), wk =   0.0088889
        k(   36) = (   0.0500000   0.2790526  -0.0555556), wk =   0.0088889
        k(   37) = (   0.0500000   0.3175426  -0.0555556), wk =   0.0088889
        k(   38) = (   0.0500000   0.3560327  -0.0555556), wk =   0.0088889
        k(   39) = (   0.0500000   0.3945227  -0.0555556), wk =   0.0088889
        k(   40) = (   0.0500000   0.4330127  -0.0555556), wk =   0.0088889
        k(   41) = (   0.0500000   0.4715027  -0.0555556), wk =   0.0088889
        k(   42) = (   0.0500000   0.5099927  -0.0555556), wk =   0.0088889
        k(   43) = (   0.0500000   0.5484828  -0.0555556), wk =   0.0088889
        k(   44) = (   0.0500000   0.5869728  -0.0555556), wk =   0.0088889
        k(   45) = (   0.0500000  -0.5292377  -0.0555556), wk =   0.0088889
        k(   46) = (   0.0500000  -0.4907477  -0.0555556), wk =   0.0088889
        k(   47) = (   0.0500000  -0.4522577  -0.0555556), wk =   0.0088889
        k(   48) = (   0.0500000  -0.4137677  -0.0555556), wk =   0.0088889
        k(   49) = (   0.0500000  -0.3752777  -0.0555556), wk =   0.0088889
        k(   50) = (   0.0500000  -0.3367877  -0.0555556), wk =   0.0088889
        k(   51) = (   0.0500000  -0.2982976  -0.0555556), wk =   0.0088889
        k(   52) = (   0.0500000  -0.2598076  -0.0555556), wk =   0.0088889
        k(   53) = (   0.0500000  -0.2213176  -0.0555556), wk =   0.0088889
        k(   54) = (   0.0500000  -0.1828276  -0.0555556), wk =   0.0088889
        k(   55) = (   0.0500000  -0.1443376  -0.0555556), wk =   0.0088889
        k(   56) = (   0.0500000  -0.1058475  -0.0555556), wk =   0.0088889
        k(   57) = (   0.0500000  -0.0673575  -0.0555556), wk =   0.0088889
        k(   58) = (   0.0500000  -0.0288675  -0.0555556), wk =   0.0044444
        k(   59) = (   0.0833333   0.1443376  -0.0555556), wk =   0.0044444
        k(   60) = (   0.0833333   0.1828276  -0.0555556), wk =   0.0088889
        k(   61) = (   0.0833333   0.2213176  -0.0555556), wk =   0.0088889
        k(   62) = (   0.0833333   0.2598076  -0.0555556), wk =   0.0088889
        k(   63) = (   0.0833333   0.2982976  -0.0555556), wk =   0.0088889
        k(   64) = (   0.0833333   0.3367877  -0.0555556), wk =   0.0088889
        k(   65) = (   0.0833333   0.3752777  -0.0555556), wk =   0.0088889
        k(   66) = (   0.0833333   0.4137677  -0.0555556), wk =   0.0088889
        k(   67) = (   0.0833333   0.4522577  -0.0555556), wk =   0.0088889
        k(   68) = (   0.0833333   0.4907477  -0.0555556), wk =   0.0088889
        k(   69) = (   0.0833333   0.5292377  -0.0555556), wk =   0.0088889
        k(   70) = (   0.0833333   0.5677278  -0.0555556), wk =   0.0088889
        k(   71) = (   0.0833333   0.6062178  -0.0555556), wk =   0.0088889
        k(   72) = (   0.0833333  -0.5099927  -0.0555556), wk =   0.0088889
        k(   73) = (   0.0833333  -0.4715027  -0.0555556), wk =   0.0088889
        k(   74) = (   0.0833333  -0.4330127  -0.0555556), wk =   0.0088889
        k(   75) = (   0.0833333  -0.3945227  -0.0555556), wk =   0.0088889
        k(   76) = (   0.0833333  -0.3560327  -0.0555556), wk =   0.0088889
        k(   77) = (   0.0833333  -0.3175426  -0.0555556), wk =   0.0088889
        k(   78) = (   0.0833333  -0.2790526  -0.0555556), wk =   0.0088889
        k(   79) = (   0.0833333  -0.2405626  -0.0555556), wk =   0.0088889
        k(   80) = (   0.0833333  -0.2020726  -0.0555556), wk =   0.0088889
        k(   81) = (   0.0833333  -0.1635826  -0.0555556), wk =   0.0088889
        k(   82) = (   0.0833333  -0.1250926  -0.0555556), wk =   0.0088889
        k(   83) = (   0.0833333  -0.0866025  -0.0555556), wk =   0.0088889
        k(   84) = (   0.0833333  -0.0481125  -0.0555556), wk =   0.0044444
        k(   85) = (   0.1166667   0.2020726  -0.0555556), wk =   0.0044444
        k(   86) = (   0.1166667   0.2405626  -0.0555556), wk =   0.0088889
        k(   87) = (   0.1166667   0.2790526  -0.0555556), wk =   0.0088889
        k(   88) = (   0.1166667   0.3175426  -0.0555556), wk =   0.0088889
        k(   89) = (   0.1166667   0.3560327  -0.0555556), wk =   0.0088889
        k(   90) = (   0.1166667   0.3945227  -0.0555556), wk =   0.0088889
        k(   91) = (   0.1166667   0.4330127  -0.0555556), wk =   0.0088889
        k(   92) = (   0.1166667   0.4715027  -0.0555556), wk =   0.0088889
        k(   93) = (   0.1166667   0.5099927  -0.0555556), wk =   0.0088889
        k(   94) = (   0.1166667   0.5484828  -0.0555556), wk =   0.0088889
        k(   95) = (   0.1166667   0.5869728  -0.0555556), wk =   0.0088889
        k(   96) = (   0.1166667   0.6254628  -0.0555556), wk =   0.0088889
        k(   97) = (   0.1166667  -0.4907477  -0.0555556), wk =   0.0088889
        k(   98) = (   0.1166667  -0.4522577  -0.0555556), wk =   0.0088889
        k(   99) = (   0.1166667  -0.4137677  -0.0555556), wk =   0.0088889
        k(  100) = (   0.1166667  -0.3752777  -0.0555556), wk =   0.0088889
        k(  101) = (   0.1166667  -0.3367877  -0.0555556), wk =   0.0088889
        k(  102) = (   0.1166667  -0.2982976  -0.0555556), wk =   0.0088889
        k(  103) = (   0.1166667  -0.2598076  -0.0555556), wk =   0.0088889
        k(  104) = (   0.1166667  -0.2213176  -0.0555556), wk =   0.0088889
        k(  105) = (   0.1166667  -0.1828276  -0.0555556), wk =   0.0088889
        k(  106) = (   0.1166667  -0.1443376  -0.0555556), wk =   0.0088889
        k(  107) = (   0.1166667  -0.1058475  -0.0555556), wk =   0.0088889
        k(  108) = (   0.1166667  -0.0673575  -0.0555556), wk =   0.0044444
        k(  109) = (   0.1500000   0.2598076  -0.0555556), wk =   0.0044444
        k(  110) = (   0.1500000   0.2982976  -0.0555556), wk =   0.0088889
        k(  111) = (   0.1500000   0.3367877  -0.0555556), wk =   0.0088889
        k(  112) = (   0.1500000   0.3752777  -0.0555556), wk =   0.0088889
        k(  113) = (   0.1500000   0.4137677  -0.0555556), wk =   0.0088889
        k(  114) = (   0.1500000   0.4522577  -0.0555556), wk =   0.0088889
        k(  115) = (   0.1500000   0.4907477  -0.0555556), wk =   0.0088889
        k(  116) = (   0.1500000   0.5292377  -0.0555556), wk =   0.0088889
        k(  117) = (   0.1500000   0.5677278  -0.0555556), wk =   0.0088889
        k(  118) = (   0.1500000   0.6062178  -0.0555556), wk =   0.0088889
        k(  119) = (   0.1500000   0.6447078  -0.0555556), wk =   0.0088889
        k(  120) = (   0.1500000  -0.4715027  -0.0555556), wk =   0.0088889
        k(  121) = (   0.1500000  -0.4330127  -0.0555556), wk =   0.0088889
        k(  122) = (   0.1500000  -0.3945227  -0.0555556), wk =   0.0088889
        k(  123) = (   0.1500000  -0.3560327  -0.0555556), wk =   0.0088889
        k(  124) = (   0.1500000  -0.3175426  -0.0555556), wk =   0.0088889
        k(  125) = (   0.1500000  -0.2790526  -0.0555556), wk =   0.0088889
        k(  126) = (   0.1500000  -0.2405626  -0.0555556), wk =   0.0088889
        k(  127) = (   0.1500000  -0.2020726  -0.0555556), wk =   0.0088889
        k(  128) = (   0.1500000  -0.1635826  -0.0555556), wk =   0.0088889
        k(  129) = (   0.1500000  -0.1250926  -0.0555556), wk =   0.0088889
        k(  130) = (   0.1500000  -0.0866025  -0.0555556), wk =   0.0044444
        k(  131) = (   0.1833333   0.3175426  -0.0555556), wk =   0.0044444
        k(  132) = (   0.1833333   0.3560327  -0.0555556), wk =   0.0088889
        k(  133) = (   0.1833333   0.3945227  -0.0555556), wk =   0.0088889
        k(  134) = (   0.1833333   0.4330127  -0.0555556), wk =   0.0088889
        k(  135) = (   0.1833333   0.4715027  -0.0555556), wk =   0.0088889
        k(  136) = (   0.1833333   0.5099927  -0.0555556), wk =   0.0088889
        k(  137) = (   0.1833333   0.5484828  -0.0555556), wk =   0.0088889
        k(  138) = (   0.1833333   0.5869728  -0.0555556), wk =   0.0088889
        k(  139) = (   0.1833333   0.6254628  -0.0555556), wk =   0.0088889
        k(  140) = (   0.1833333   0.6639528  -0.0555556), wk =   0.0088889
        k(  141) = (   0.1833333  -0.4522577  -0.0555556), wk =   0.0088889
        k(  142) = (   0.1833333  -0.4137677  -0.0555556), wk =   0.0088889
        k(  143) = (   0.1833333  -0.3752777  -0.0555556), wk =   0.0088889
        k(  144) = (   0.1833333  -0.3367877  -0.0555556), wk =   0.0088889
        k(  145) = (   0.1833333  -0.2982976  -0.0555556), wk =   0.0088889
        k(  146) = (   0.1833333  -0.2598076  -0.0555556), wk =   0.0088889
        k(  147) = (   0.1833333  -0.2213176  -0.0555556), wk =   0.0088889
        k(  148) = (   0.1833333  -0.1828276  -0.0555556), wk =   0.0088889
        k(  149) = (   0.1833333  -0.1443376  -0.0555556), wk =   0.0088889
        k(  150) = (   0.1833333  -0.1058475  -0.0555556), wk =   0.0044444
        k(  151) = (   0.2166667   0.3752777  -0.0555556), wk =   0.0044444
        k(  152) = (   0.2166667   0.4137677  -0.0555556), wk =   0.0088889
        k(  153) = (   0.2166667   0.4522577  -0.0555556), wk =   0.0088889
        k(  154) = (   0.2166667   0.4907477  -0.0555556), wk =   0.0088889
        k(  155) = (   0.2166667   0.5292377  -0.0555556), wk =   0.0088889
        k(  156) = (   0.2166667   0.5677278  -0.0555556), wk =   0.0088889
        k(  157) = (   0.2166667   0.6062178  -0.0555556), wk =   0.0088889
        k(  158) = (   0.2166667   0.6447078  -0.0555556), wk =   0.0088889
        k(  159) = (   0.2166667   0.6831978  -0.0555556), wk =   0.0088889
        k(  160) = (   0.2166667  -0.4330127  -0.0555556), wk =   0.0088889
        k(  161) = (   0.2166667  -0.3945227  -0.0555556), wk =   0.0088889
        k(  162) = (   0.2166667  -0.3560327  -0.0555556), wk =   0.0088889
        k(  163) = (   0.2166667  -0.3175426  -0.0555556), wk =   0.0088889
        k(  164) = (   0.2166667  -0.2790526  -0.0555556), wk =   0.0088889
        k(  165) = (   0.2166667  -0.2405626  -0.0555556), wk =   0.0088889
        k(  166) = (   0.2166667  -0.2020726  -0.0555556), wk =   0.0088889
        k(  167) = (   0.2166667  -0.1635826  -0.0555556), wk =   0.0088889
        k(  168) = (   0.2166667  -0.1250926  -0.0555556), wk =   0.0044444
        k(  169) = (   0.2500000   0.4330127  -0.0555556), wk =   0.0044444
        k(  170) = (   0.2500000   0.4715027  -0.0555556), wk =   0.0088889
        k(  171) = (   0.2500000   0.5099927  -0.0555556), wk =   0.0088889
        k(  172) = (   0.2500000   0.5484828  -0.0555556), wk =   0.0088889
        k(  173) = (   0.2500000   0.5869728  -0.0555556), wk =   0.0088889
        k(  174) = (   0.2500000   0.6254628  -0.0555556), wk =   0.0088889
        k(  175) = (   0.2500000   0.6639528  -0.0555556), wk =   0.0088889
        k(  176) = (   0.2500000   0.7024428  -0.0555556), wk =   0.0088889
        k(  177) = (   0.2500000  -0.4137677  -0.0555556), wk =   0.0088889
        k(  178) = (   0.2500000  -0.3752777  -0.0555556), wk =   0.0088889
        k(  179) = (   0.2500000  -0.3367877  -0.0555556), wk =   0.0088889
        k(  180) = (   0.2500000  -0.2982976  -0.0555556), wk =   0.0088889
        k(  181) = (   0.2500000  -0.2598076  -0.0555556), wk =   0.0088889
        k(  182) = (   0.2500000  -0.2213176  -0.0555556), wk =   0.0088889
        k(  183) = (   0.2500000  -0.1828276  -0.0555556), wk =   0.0088889
        k(  184) = (   0.2500000  -0.1443376  -0.0555556), wk =   0.0044444
        k(  185) = (   0.2833333   0.4907477  -0.0555556), wk =   0.0044444
        k(  186) = (   0.2833333   0.5292377  -0.0555556), wk =   0.0088889
        k(  187) = (   0.2833333   0.5677278  -0.0555556), wk =   0.0088889
        k(  188) = (   0.2833333   0.6062178  -0.0555556), wk =   0.0088889
        k(  189) = (   0.2833333   0.6447078  -0.0555556), wk =   0.0088889
        k(  190) = (   0.2833333   0.6831978  -0.0555556), wk =   0.0088889
        k(  191) = (   0.2833333   0.7216878  -0.0555556), wk =   0.0088889
        k(  192) = (   0.2833333  -0.3945227  -0.0555556), wk =   0.0088889
        k(  193) = (   0.2833333  -0.3560327  -0.0555556), wk =   0.0088889
        k(  194) = (   0.2833333  -0.3175426  -0.0555556), wk =   0.0088889
        k(  195) = (   0.2833333  -0.2790526  -0.0555556), wk =   0.0088889
        k(  196) = (   0.2833333  -0.2405626  -0.0555556), wk =   0.0088889
        k(  197) = (   0.2833333  -0.2020726  -0.0555556), wk =   0.0088889
        k(  198) = (   0.2833333  -0.1635826  -0.0555556), wk =   0.0044444
        k(  199) = (   0.3166667   0.5484828  -0.0555556), wk =   0.0044444
        k(  200) = (   0.3166667   0.5869728  -0.0555556), wk =   0.0088889
        k(  201) = (   0.3166667   0.6254628  -0.0555556), wk =   0.0088889
        k(  202) = (   0.3166667   0.6639528  -0.0555556), wk =   0.0088889
        k(  203) = (   0.3166667   0.7024428  -0.0555556), wk =   0.0088889
        k(  204) = (   0.3166667   0.7409328  -0.0555556), wk =   0.0088889
        k(  205) = (   0.3166667  -0.3752777  -0.0555556), wk =   0.0088889
        k(  206) = (   0.3166667  -0.3367877  -0.0555556), wk =   0.0088889
        k(  207) = (   0.3166667  -0.2982976  -0.0555556), wk =   0.0088889
        k(  208) = (   0.3166667  -0.2598076  -0.0555556), wk =   0.0088889
        k(  209) = (   0.3166667  -0.2213176  -0.0555556), wk =   0.0088889
        k(  210) = (   0.3166667  -0.1828276  -0.0555556), wk =   0.0044444
        k(  211) = (   0.3500000   0.6062178  -0.0555556), wk =   0.0044444
        k(  212) = (   0.3500000   0.6447078  -0.0555556), wk =   0.0088889
        k(  213) = (   0.3500000   0.6831978  -0.0555556), wk =   0.0088889
        k(  214) = (   0.3500000   0.7216878  -0.0555556), wk =   0.0088889
        k(  215) = (   0.3500000   0.7601779  -0.0555556), wk =   0.0088889
        k(  216) = (   0.3500000  -0.3560327  -0.0555556), wk =   0.0088889
        k(  217) = (   0.3500000  -0.3175426  -0.0555556), wk =   0.0088889
        k(  218) = (   0.3500000  -0.2790526  -0.0555556), wk =   0.0088889
        k(  219) = (   0.3500000  -0.2405626  -0.0555556), wk =   0.0088889
        k(  220) = (   0.3500000  -0.2020726  -0.0555556), wk =   0.0044444
        k(  221) = (   0.3833333   0.6639528  -0.0555556), wk =   0.0044444
        k(  222) = (   0.3833333   0.7024428  -0.0555556), wk =   0.0088889
        k(  223) = (   0.3833333   0.7409328  -0.0555556), wk =   0.0088889
        k(  224) = (   0.3833333   0.7794229  -0.0555556), wk =   0.0088889
        k(  225) = (   0.3833333  -0.3367877  -0.0555556), wk =   0.0088889
        k(  226) = (   0.3833333  -0.2982976  -0.0555556), wk =   0.0088889
        k(  227) = (   0.3833333  -0.2598076  -0.0555556), wk =   0.0088889
        k(  228) = (   0.3833333  -0.2213176  -0.0555556), wk =   0.0044444
        k(  229) = (   0.4166667   0.7216878  -0.0555556), wk =   0.0044444
        k(  230) = (   0.4166667   0.7601779  -0.0555556), wk =   0.0088889
        k(  231) = (   0.4166667   0.7986679  -0.0555556), wk =   0.0088889
        k(  232) = (   0.4166667  -0.3175426  -0.0555556), wk =   0.0088889
        k(  233) = (   0.4166667  -0.2790526  -0.0555556), wk =   0.0088889
        k(  234) = (   0.4166667  -0.2405626  -0.0555556), wk =   0.0044444
        k(  235) = (   0.4500000   0.7794229  -0.0555556), wk =   0.0044444
        k(  236) = (   0.4500000   0.8179129  -0.0555556), wk =   0.0088889
        k(  237) = (   0.4500000  -0.2982976  -0.0555556), wk =   0.0088889
        k(  238) = (   0.4500000  -0.2598076  -0.0555556), wk =   0.0044444
        k(  239) = (   0.4833333   0.8371579  -0.0555556), wk =   0.0044444
        k(  240) = (   0.4833333  -0.2790526  -0.0555556), wk =   0.0044444

                       cryst. coord.
        k(    1) = (   0.0166667   0.0166667  -0.5000000), wk =   0.0044444
        k(    2) = (   0.0166667   0.0500000  -0.5000000), wk =   0.0088889
        k(    3) = (   0.0166667   0.0833333  -0.5000000), wk =   0.0088889
        k(    4) = (   0.0166667   0.1166667  -0.5000000), wk =   0.0088889
        k(    5) = (   0.0166667   0.1500000  -0.5000000), wk =   0.0088889
        k(    6) = (   0.0166667   0.1833333  -0.5000000), wk =   0.0088889
        k(    7) = (   0.0166667   0.2166667  -0.5000000), wk =   0.0088889
        k(    8) = (   0.0166667   0.2500000  -0.5000000), wk =   0.0088889
        k(    9) = (   0.0166667   0.2833333  -0.5000000), wk =   0.0088889
        k(   10) = (   0.0166667   0.3166667  -0.5000000), wk =   0.0088889
        k(   11) = (   0.0166667   0.3500000  -0.5000000), wk =   0.0088889
        k(   12) = (   0.0166667   0.3833333  -0.5000000), wk =   0.0088889
        k(   13) = (   0.0166667   0.4166667  -0.5000000), wk =   0.0088889
        k(   14) = (   0.0166667   0.4500000  -0.5000000), wk =   0.0088889
        k(   15) = (   0.0166667   0.4833333  -0.5000000), wk =   0.0088889
        k(   16) = (   0.0166667  -0.4833333  -0.5000000), wk =   0.0088889
        k(   17) = (   0.0166667  -0.4500000  -0.5000000), wk =   0.0088889
        k(   18) = (   0.0166667  -0.4166667  -0.5000000), wk =   0.0088889
        k(   19) = (   0.0166667  -0.3833333  -0.5000000), wk =   0.0088889
        k(   20) = (   0.0166667  -0.3500000  -0.5000000), wk =   0.0088889
        k(   21) = (   0.0166667  -0.3166667  -0.5000000), wk =   0.0088889
        k(   22) = (   0.0166667  -0.2833333  -0.5000000), wk =   0.0088889
        k(   23) = (   0.0166667  -0.2500000  -0.5000000), wk =   0.0088889
        k(   24) = (   0.0166667  -0.2166667  -0.5000000), wk =   0.0088889
        k(   25) = (   0.0166667  -0.1833333  -0.5000000), wk =   0.0088889
        k(   26) = (   0.0166667  -0.1500000  -0.5000000), wk =   0.0088889
        k(   27) = (   0.0166667  -0.1166667  -0.5000000), wk =   0.0088889
        k(   28) = (   0.0166667  -0.0833333  -0.5000000), wk =   0.0088889
        k(   29) = (   0.0166667  -0.0500000  -0.5000000), wk =   0.0088889
        k(   30) = (   0.0166667  -0.0166667  -0.5000000), wk =   0.0044444
        k(   31) = (   0.0500000   0.0500000  -0.5000000), wk =   0.0044444
        k(   32) = (   0.0500000   0.0833333  -0.5000000), wk =   0.0088889
        k(   33) = (   0.0500000   0.1166667  -0.5000000), wk =   0.0088889
        k(   34) = (   0.0500000   0.1500000  -0.5000000), wk =   0.0088889
        k(   35) = (   0.0500000   0.1833333  -0.5000000), wk =   0.0088889
        k(   36) = (   0.0500000   0.2166667  -0.5000000), wk =   0.0088889
        k(   37) = (   0.0500000   0.2500000  -0.5000000), wk =   0.0088889
        k(   38) = (   0.0500000   0.2833333  -0.5000000), wk =   0.0088889
        k(   39) = (   0.0500000   0.3166667  -0.5000000), wk =   0.0088889
        k(   40) = (   0.0500000   0.3500000  -0.5000000), wk =   0.0088889
        k(   41) = (   0.0500000   0.3833333  -0.5000000), wk =   0.0088889
        k(   42) = (   0.0500000   0.4166667  -0.5000000), wk =   0.0088889
        k(   43) = (   0.0500000   0.4500000  -0.5000000), wk =   0.0088889
        k(   44) = (   0.0500000   0.4833333  -0.5000000), wk =   0.0088889
        k(   45) = (   0.0500000  -0.4833333  -0.5000000), wk =   0.0088889
        k(   46) = (   0.0500000  -0.4500000  -0.5000000), wk =   0.0088889
        k(   47) = (   0.0500000  -0.4166667  -0.5000000), wk =   0.0088889
        k(   48) = (   0.0500000  -0.3833333  -0.5000000), wk =   0.0088889
        k(   49) = (   0.0500000  -0.3500000  -0.5000000), wk =   0.0088889
        k(   50) = (   0.0500000  -0.3166667  -0.5000000), wk =   0.0088889
        k(   51) = (   0.0500000  -0.2833333  -0.5000000), wk =   0.0088889
        k(   52) = (   0.0500000  -0.2500000  -0.5000000), wk =   0.0088889
        k(   53) = (   0.0500000  -0.2166667  -0.5000000), wk =   0.0088889
        k(   54) = (   0.0500000  -0.1833333  -0.5000000), wk =   0.0088889
        k(   55) = (   0.0500000  -0.1500000  -0.5000000), wk =   0.0088889
        k(   56) = (   0.0500000  -0.1166667  -0.5000000), wk =   0.0088889
        k(   57) = (   0.0500000  -0.0833333  -0.5000000), wk =   0.0088889
        k(   58) = (   0.0500000  -0.0500000  -0.5000000), wk =   0.0044444
        k(   59) = (   0.0833333   0.0833333  -0.5000000), wk =   0.0044444
        k(   60) = (   0.0833333   0.1166667  -0.5000000), wk =   0.0088889
        k(   61) = (   0.0833333   0.1500000  -0.5000000), wk =   0.0088889
        k(   62) = (   0.0833333   0.1833333  -0.5000000), wk =   0.0088889
        k(   63) = (   0.0833333   0.2166667  -0.5000000), wk =   0.0088889
        k(   64) = (   0.0833333   0.2500000  -0.5000000), wk =   0.0088889
        k(   65) = (   0.0833333   0.2833333  -0.5000000), wk =   0.0088889
        k(   66) = (   0.0833333   0.3166667  -0.5000000), wk =   0.0088889
        k(   67) = (   0.0833333   0.3500000  -0.5000000), wk =   0.0088889
        k(   68) = (   0.0833333   0.3833333  -0.5000000), wk =   0.0088889
        k(   69) = (   0.0833333   0.4166667  -0.5000000), wk =   0.0088889
        k(   70) = (   0.0833333   0.4500000  -0.5000000), wk =   0.0088889
        k(   71) = (   0.0833333   0.4833333  -0.5000000), wk =   0.0088889
        k(   72) = (   0.0833333  -0.4833333  -0.5000000), wk =   0.0088889
        k(   73) = (   0.0833333  -0.4500000  -0.5000000), wk =   0.0088889
        k(   74) = (   0.0833333  -0.4166667  -0.5000000), wk =   0.0088889
        k(   75) = (   0.0833333  -0.3833333  -0.5000000), wk =   0.0088889
        k(   76) = (   0.0833333  -0.3500000  -0.5000000), wk =   0.0088889
        k(   77) = (   0.0833333  -0.3166667  -0.5000000), wk =   0.0088889
        k(   78) = (   0.0833333  -0.2833333  -0.5000000), wk =   0.0088889
        k(   79) = (   0.0833333  -0.2500000  -0.5000000), wk =   0.0088889
        k(   80) = (   0.0833333  -0.2166667  -0.5000000), wk =   0.0088889
        k(   81) = (   0.0833333  -0.1833333  -0.5000000), wk =   0.0088889
        k(   82) = (   0.0833333  -0.1500000  -0.5000000), wk =   0.0088889
        k(   83) = (   0.0833333  -0.1166667  -0.5000000), wk =   0.0088889
        k(   84) = (   0.0833333  -0.0833333  -0.5000000), wk =   0.0044444
        k(   85) = (   0.1166667   0.1166667  -0.5000000), wk =   0.0044444
        k(   86) = (   0.1166667   0.1500000  -0.5000000), wk =   0.0088889
        k(   87) = (   0.1166667   0.1833333  -0.5000000), wk =   0.0088889
        k(   88) = (   0.1166667   0.2166667  -0.5000000), wk =   0.0088889
        k(   89) = (   0.1166667   0.2500000  -0.5000000), wk =   0.0088889
        k(   90) = (   0.1166667   0.2833333  -0.5000000), wk =   0.0088889
        k(   91) = (   0.1166667   0.3166667  -0.5000000), wk =   0.0088889
        k(   92) = (   0.1166667   0.3500000  -0.5000000), wk =   0.0088889
        k(   93) = (   0.1166667   0.3833333  -0.5000000), wk =   0.0088889
        k(   94) = (   0.1166667   0.4166667  -0.5000000), wk =   0.0088889
        k(   95) = (   0.1166667   0.4500000  -0.5000000), wk =   0.0088889
        k(   96) = (   0.1166667   0.4833333  -0.5000000), wk =   0.0088889
        k(   97) = (   0.1166667  -0.4833333  -0.5000000), wk =   0.0088889
        k(   98) = (   0.1166667  -0.4500000  -0.5000000), wk =   0.0088889
        k(   99) = (   0.1166667  -0.4166667  -0.5000000), wk =   0.0088889
        k(  100) = (   0.1166667  -0.3833333  -0.5000000), wk =   0.0088889
        k(  101) = (   0.1166667  -0.3500000  -0.5000000), wk =   0.0088889
        k(  102) = (   0.1166667  -0.3166667  -0.5000000), wk =   0.0088889
        k(  103) = (   0.1166667  -0.2833333  -0.5000000), wk =   0.0088889
        k(  104) = (   0.1166667  -0.2500000  -0.5000000), wk =   0.0088889
        k(  105) = (   0.1166667  -0.2166667  -0.5000000), wk =   0.0088889
        k(  106) = (   0.1166667  -0.1833333  -0.5000000), wk =   0.0088889
        k(  107) = (   0.1166667  -0.1500000  -0.5000000), wk =   0.0088889
        k(  108) = (   0.1166667  -0.1166667  -0.5000000), wk =   0.0044444
        k(  109) = (   0.1500000   0.1500000  -0.5000000), wk =   0.0044444
        k(  110) = (   0.1500000   0.1833333  -0.5000000), wk =   0.0088889
        k(  111) = (   0.1500000   0.2166667  -0.5000000), wk =   0.0088889
        k(  112) = (   0.1500000   0.2500000  -0.5000000), wk =   0.0088889
        k(  113) = (   0.1500000   0.2833333  -0.5000000), wk =   0.0088889
        k(  114) = (   0.1500000   0.3166667  -0.5000000), wk =   0.0088889
        k(  115) = (   0.1500000   0.3500000  -0.5000000), wk =   0.0088889
        k(  116) = (   0.1500000   0.3833333  -0.5000000), wk =   0.0088889
        k(  117) = (   0.1500000   0.4166667  -0.5000000), wk =   0.0088889
        k(  118) = (   0.1500000   0.4500000  -0.5000000), wk =   0.0088889
        k(  119) = (   0.1500000   0.4833333  -0.5000000), wk =   0.0088889
        k(  120) = (   0.1500000  -0.4833333  -0.5000000), wk =   0.0088889
        k(  121) = (   0.1500000  -0.4500000  -0.5000000), wk =   0.0088889
        k(  122) = (   0.1500000  -0.4166667  -0.5000000), wk =   0.0088889
        k(  123) = (   0.1500000  -0.3833333  -0.5000000), wk =   0.0088889
        k(  124) = (   0.1500000  -0.3500000  -0.5000000), wk =   0.0088889
        k(  125) = (   0.1500000  -0.3166667  -0.5000000), wk =   0.0088889
        k(  126) = (   0.1500000  -0.2833333  -0.5000000), wk =   0.0088889
        k(  127) = (   0.1500000  -0.2500000  -0.5000000), wk =   0.0088889
        k(  128) = (   0.1500000  -0.2166667  -0.5000000), wk =   0.0088889
        k(  129) = (   0.1500000  -0.1833333  -0.5000000), wk =   0.0088889
        k(  130) = (   0.1500000  -0.1500000  -0.5000000), wk =   0.0044444
        k(  131) = (   0.1833333   0.1833333  -0.5000000), wk =   0.0044444
        k(  132) = (   0.1833333   0.2166667  -0.5000000), wk =   0.0088889
        k(  133) = (   0.1833333   0.2500000  -0.5000000), wk =   0.0088889
        k(  134) = (   0.1833333   0.2833333  -0.5000000), wk =   0.0088889
        k(  135) = (   0.1833333   0.3166667  -0.5000000), wk =   0.0088889
        k(  136) = (   0.1833333   0.3500000  -0.5000000), wk =   0.0088889
        k(  137) = (   0.1833333   0.3833333  -0.5000000), wk =   0.0088889
        k(  138) = (   0.1833333   0.4166667  -0.5000000), wk =   0.0088889
        k(  139) = (   0.1833333   0.4500000  -0.5000000), wk =   0.0088889
        k(  140) = (   0.1833333   0.4833333  -0.5000000), wk =   0.0088889
        k(  141) = (   0.1833333  -0.4833333  -0.5000000), wk =   0.0088889
        k(  142) = (   0.1833333  -0.4500000  -0.5000000), wk =   0.0088889
        k(  143) = (   0.1833333  -0.4166667  -0.5000000), wk =   0.0088889
        k(  144) = (   0.1833333  -0.3833333  -0.5000000), wk =   0.0088889
        k(  145) = (   0.1833333  -0.3500000  -0.5000000), wk =   0.0088889
        k(  146) = (   0.1833333  -0.3166667  -0.5000000), wk =   0.0088889
        k(  147) = (   0.1833333  -0.2833333  -0.5000000), wk =   0.0088889
        k(  148) = (   0.1833333  -0.2500000  -0.5000000), wk =   0.0088889
        k(  149) = (   0.1833333  -0.2166667  -0.5000000), wk =   0.0088889
        k(  150) = (   0.1833333  -0.1833333  -0.5000000), wk =   0.0044444
        k(  151) = (   0.2166667   0.2166667  -0.5000000), wk =   0.0044444
        k(  152) = (   0.2166667   0.2500000  -0.5000000), wk =   0.0088889
        k(  153) = (   0.2166667   0.2833333  -0.5000000), wk =   0.0088889
        k(  154) = (   0.2166667   0.3166667  -0.5000000), wk =   0.0088889
        k(  155) = (   0.2166667   0.3500000  -0.5000000), wk =   0.0088889
        k(  156) = (   0.2166667   0.3833333  -0.5000000), wk =   0.0088889
        k(  157) = (   0.2166667   0.4166667  -0.5000000), wk =   0.0088889
        k(  158) = (   0.2166667   0.4500000  -0.5000000), wk =   0.0088889
        k(  159) = (   0.2166667   0.4833333  -0.5000000), wk =   0.0088889
        k(  160) = (   0.2166667  -0.4833333  -0.5000000), wk =   0.0088889
        k(  161) = (   0.2166667  -0.4500000  -0.5000000), wk =   0.0088889
        k(  162) = (   0.2166667  -0.4166667  -0.5000000), wk =   0.0088889
        k(  163) = (   0.2166667  -0.3833333  -0.5000000), wk =   0.0088889
        k(  164) = (   0.2166667  -0.3500000  -0.5000000), wk =   0.0088889
        k(  165) = (   0.2166667  -0.3166667  -0.5000000), wk =   0.0088889
        k(  166) = (   0.2166667  -0.2833333  -0.5000000), wk =   0.0088889
        k(  167) = (   0.2166667  -0.2500000  -0.5000000), wk =   0.0088889
        k(  168) = (   0.2166667  -0.2166667  -0.5000000), wk =   0.0044444
        k(  169) = (   0.2500000   0.2500000  -0.5000000), wk =   0.0044444
        k(  170) = (   0.2500000   0.2833333  -0.5000000), wk =   0.0088889
        k(  171) = (   0.2500000   0.3166667  -0.5000000), wk =   0.0088889
        k(  172) = (   0.2500000   0.3500000  -0.5000000), wk =   0.0088889
        k(  173) = (   0.2500000   0.3833333  -0.5000000), wk =   0.0088889
        k(  174) = (   0.2500000   0.4166667  -0.5000000), wk =   0.0088889
        k(  175) = (   0.2500000   0.4500000  -0.5000000), wk =   0.0088889
        k(  176) = (   0.2500000   0.4833333  -0.5000000), wk =   0.0088889
        k(  177) = (   0.2500000  -0.4833333  -0.5000000), wk =   0.0088889
        k(  178) = (   0.2500000  -0.4500000  -0.5000000), wk =   0.0088889
        k(  179) = (   0.2500000  -0.4166667  -0.5000000), wk =   0.0088889
        k(  180) = (   0.2500000  -0.3833333  -0.5000000), wk =   0.0088889
        k(  181) = (   0.2500000  -0.3500000  -0.5000000), wk =   0.0088889
        k(  182) = (   0.2500000  -0.3166667  -0.5000000), wk =   0.0088889
        k(  183) = (   0.2500000  -0.2833333  -0.5000000), wk =   0.0088889
        k(  184) = (   0.2500000  -0.2500000  -0.5000000), wk =   0.0044444
        k(  185) = (   0.2833333   0.2833333  -0.5000000), wk =   0.0044444
        k(  186) = (   0.2833333   0.3166667  -0.5000000), wk =   0.0088889
        k(  187) = (   0.2833333   0.3500000  -0.5000000), wk =   0.0088889
        k(  188) = (   0.2833333   0.3833333  -0.5000000), wk =   0.0088889
        k(  189) = (   0.2833333   0.4166667  -0.5000000), wk =   0.0088889
        k(  190) = (   0.2833333   0.4500000  -0.5000000), wk =   0.0088889
        k(  191) = (   0.2833333   0.4833333  -0.5000000), wk =   0.0088889
        k(  192) = (   0.2833333  -0.4833333  -0.5000000), wk =   0.0088889
        k(  193) = (   0.2833333  -0.4500000  -0.5000000), wk =   0.0088889
        k(  194) = (   0.2833333  -0.4166667  -0.5000000), wk =   0.0088889
        k(  195) = (   0.2833333  -0.3833333  -0.5000000), wk =   0.0088889
        k(  196) = (   0.2833333  -0.3500000  -0.5000000), wk =   0.0088889
        k(  197) = (   0.2833333  -0.3166667  -0.5000000), wk =   0.0088889
        k(  198) = (   0.2833333  -0.2833333  -0.5000000), wk =   0.0044444
        k(  199) = (   0.3166667   0.3166667  -0.5000000), wk =   0.0044444
        k(  200) = (   0.3166667   0.3500000  -0.5000000), wk =   0.0088889
        k(  201) = (   0.3166667   0.3833333  -0.5000000), wk =   0.0088889
        k(  202) = (   0.3166667   0.4166667  -0.5000000), wk =   0.0088889
        k(  203) = (   0.3166667   0.4500000  -0.5000000), wk =   0.0088889
        k(  204) = (   0.3166667   0.4833333  -0.5000000), wk =   0.0088889
        k(  205) = (   0.3166667  -0.4833333  -0.5000000), wk =   0.0088889
        k(  206) = (   0.3166667  -0.4500000  -0.5000000), wk =   0.0088889
        k(  207) = (   0.3166667  -0.4166667  -0.5000000), wk =   0.0088889
        k(  208) = (   0.3166667  -0.3833333  -0.5000000), wk =   0.0088889
        k(  209) = (   0.3166667  -0.3500000  -0.5000000), wk =   0.0088889
        k(  210) = (   0.3166667  -0.3166667  -0.5000000), wk =   0.0044444
        k(  211) = (   0.3500000   0.3500000  -0.5000000), wk =   0.0044444
        k(  212) = (   0.3500000   0.3833333  -0.5000000), wk =   0.0088889
        k(  213) = (   0.3500000   0.4166667  -0.5000000), wk =   0.0088889
        k(  214) = (   0.3500000   0.4500000  -0.5000000), wk =   0.0088889
        k(  215) = (   0.3500000   0.4833333  -0.5000000), wk =   0.0088889
        k(  216) = (   0.3500000  -0.4833333  -0.5000000), wk =   0.0088889
        k(  217) = (   0.3500000  -0.4500000  -0.5000000), wk =   0.0088889
        k(  218) = (   0.3500000  -0.4166667  -0.5000000), wk =   0.0088889
        k(  219) = (   0.3500000  -0.3833333  -0.5000000), wk =   0.0088889
        k(  220) = (   0.3500000  -0.3500000  -0.5000000), wk =   0.0044444
        k(  221) = (   0.3833333   0.3833333  -0.5000000), wk =   0.0044444
        k(  222) = (   0.3833333   0.4166667  -0.5000000), wk =   0.0088889
        k(  223) = (   0.3833333   0.4500000  -0.5000000), wk =   0.0088889
        k(  224) = (   0.3833333   0.4833333  -0.5000000), wk =   0.0088889
        k(  225) = (   0.3833333  -0.4833333  -0.5000000), wk =   0.0088889
        k(  226) = (   0.3833333  -0.4500000  -0.5000000), wk =   0.0088889
        k(  227) = (   0.3833333  -0.4166667  -0.5000000), wk =   0.0088889
        k(  228) = (   0.3833333  -0.3833333  -0.5000000), wk =   0.0044444
        k(  229) = (   0.4166667   0.4166667  -0.5000000), wk =   0.0044444
        k(  230) = (   0.4166667   0.4500000  -0.5000000), wk =   0.0088889
        k(  231) = (   0.4166667   0.4833333  -0.5000000), wk =   0.0088889
        k(  232) = (   0.4166667  -0.4833333  -0.5000000), wk =   0.0088889
        k(  233) = (   0.4166667  -0.4500000  -0.5000000), wk =   0.0088889
        k(  234) = (   0.4166667  -0.4166667  -0.5000000), wk =   0.0044444
        k(  235) = (   0.4500000   0.4500000  -0.5000000), wk =   0.0044444
        k(  236) = (   0.4500000   0.4833333  -0.5000000), wk =   0.0088889
        k(  237) = (   0.4500000  -0.4833333  -0.5000000), wk =   0.0088889
        k(  238) = (   0.4500000  -0.4500000  -0.5000000), wk =   0.0044444
        k(  239) = (   0.4833333   0.4833333  -0.5000000), wk =   0.0044444
        k(  240) = (   0.4833333  -0.4833333  -0.5000000), wk =   0.0044444

     Dense  grid:    26869 G-vectors     FFT dimensions: (  20,  20, 180)

     Dynamical RAM for                 wfc:       1.02 MB

     Dynamical RAM for     wfc (w. buffer):       1.02 MB

     Dynamical RAM for           str. fact:       0.41 MB

     Dynamical RAM for           local pot:       0.00 MB

     Dynamical RAM for          nlocal pot:       0.10 MB

     Dynamical RAM for                qrad:       0.01 MB

     Dynamical RAM for          rho,v,vnew:       2.88 MB

     Dynamical RAM for           G-vectors:       1.74 MB

     Dynamical RAM for          h,s,v(r/c):       0.29 MB

     Dynamical RAM for          <psi|beta>:       0.00 MB

     Dynamical RAM for                 psi:       4.09 MB

     Dynamical RAM for                hpsi:       4.09 MB

     Dynamical RAM for      wfcinit/wfcrot:       2.05 MB

     Estimated static dynamical RAM per process >       9.73 MB

     Estimated max dynamical RAM per process >      18.20 MB

     The potential is recalculated from file :
     ./tmp/Grafene.save/charge-density


     negative rho (up, down):  1.167E-03 0.000E+00
     Starting wfcs are    8 randomized atomic wfcs +   12 random wfcs

     Band Structure Calculation
     Davidson diagonalization with overlap

     Computing kpt #:     1
     total cpu time spent up to now is        0.9 secs

     Computing kpt #:     2
     total cpu time spent up to now is        1.2 secs

     Computing kpt #:     3
     total cpu time spent up to now is        1.5 secs

     Computing kpt #:     4
     total cpu time spent up to now is        1.9 secs

     Computing kpt #:     5
     total cpu time spent up to now is        2.2 secs

     Computing kpt #:     6
     total cpu time spent up to now is        2.6 secs

     Computing kpt #:     7
     total cpu time spent up to now is        3.0 secs

     Computing kpt #:     8
     total cpu time spent up to now is        3.4 secs

     Computing kpt #:     9
     total cpu time spent up to now is        4.0 secs

     Computing kpt #:    10
     total cpu time spent up to now is        4.9 secs

     Computing kpt #:    11
     total cpu time spent up to now is        6.1 secs

     Computing kpt #:    12
     total cpu time spent up to now is        6.5 secs

     Computing kpt #:    13
     total cpu time spent up to now is        7.0 secs

     Computing kpt #:    14
     total cpu time spent up to now is        7.4 secs

     Computing kpt #:    15
     total cpu time spent up to now is        7.9 secs

     Computing kpt #:    16
     total cpu time spent up to now is        8.4 secs

     Computing kpt #:    17
     total cpu time spent up to now is        8.8 secs

     Computing kpt #:    18
     total cpu time spent up to now is        9.3 secs

     Computing kpt #:    19
     total cpu time spent up to now is        9.8 secs

     Computing kpt #:    20
     total cpu time spent up to now is       10.2 secs

     Computing kpt #:    21
     total cpu time spent up to now is       11.0 secs

     Computing kpt #:    22
     total cpu time spent up to now is       11.4 secs

     Computing kpt #:    23
     total cpu time spent up to now is       11.7 secs

     Computing kpt #:    24
     total cpu time spent up to now is       12.1 secs

     Computing kpt #:    25
     total cpu time spent up to now is       12.5 secs

     Computing kpt #:    26
     total cpu time spent up to now is       13.0 secs

     Computing kpt #:    27
     total cpu time spent up to now is       13.4 secs

     Computing kpt #:    28
     total cpu time spent up to now is       13.8 secs

     Computing kpt #:    29
     total cpu time spent up to now is       14.3 secs

     Computing kpt #:    30
     total cpu time spent up to now is       14.6 secs

     Computing kpt #:    31
     total cpu time spent up to now is       14.9 secs

     Computing kpt #:    32
     total cpu time spent up to now is       15.3 secs

     Computing kpt #:    33
     total cpu time spent up to now is       16.0 secs

     Computing kpt #:    34
     total cpu time spent up to now is       16.4 secs

     Computing kpt #:    35
     total cpu time spent up to now is       16.7 secs

     Computing kpt #:    36
     total cpu time spent up to now is       17.1 secs

     Computing kpt #:    37
     total cpu time spent up to now is       17.4 secs

     Computing kpt #:    38
     total cpu time spent up to now is       17.9 secs

     Computing kpt #:    39
     total cpu time spent up to now is       18.3 secs

     Computing kpt #:    40
     total cpu time spent up to now is       18.8 secs

     Computing kpt #:    41
     total cpu time spent up to now is       19.3 secs

     Computing kpt #:    42
     total cpu time spent up to now is       19.7 secs

     Computing kpt #:    43
     total cpu time spent up to now is       20.3 secs

     Computing kpt #:    44
     total cpu time spent up to now is       21.5 secs

     Computing kpt #:    45
     total cpu time spent up to now is       21.9 secs

     Computing kpt #:    46
     total cpu time spent up to now is       22.4 secs

     Computing kpt #:    47
     total cpu time spent up to now is       23.1 secs

     Computing kpt #:    48
     total cpu time spent up to now is       23.6 secs

     Computing kpt #:    49
     total cpu time spent up to now is       24.2 secs

     Computing kpt #:    50
     total cpu time spent up to now is       24.6 secs

     Computing kpt #:    51
     total cpu time spent up to now is       25.1 secs

     Computing kpt #:    52
     total cpu time spent up to now is       25.8 secs

     Computing kpt #:    53
     total cpu time spent up to now is       26.2 secs

     Computing kpt #:    54
     total cpu time spent up to now is       26.6 secs

     Computing kpt #:    55
     total cpu time spent up to now is       26.9 secs

     Computing kpt #:    56
     total cpu time spent up to now is       27.3 secs

     Computing kpt #:    57
     total cpu time spent up to now is       27.6 secs

     Computing kpt #:    58
     total cpu time spent up to now is       27.9 secs

     Computing kpt #:    59
     total cpu time spent up to now is       28.2 secs

     Computing kpt #:    60
     total cpu time spent up to now is       28.5 secs

     Computing kpt #:    61
     total cpu time spent up to now is       28.9 secs

     Computing kpt #:    62
     total cpu time spent up to now is       29.2 secs

     Computing kpt #:    63
     total cpu time spent up to now is       29.6 secs

     Computing kpt #:    64
     total cpu time spent up to now is       30.0 secs

     Computing kpt #:    65
     total cpu time spent up to now is       30.7 secs

     Computing kpt #:    66
     total cpu time spent up to now is       31.5 secs

     Computing kpt #:    67
     total cpu time spent up to now is       32.2 secs

     Computing kpt #:    68
     total cpu time spent up to now is       32.7 secs

     Computing kpt #:    69
     total cpu time spent up to now is       33.1 secs

     Computing kpt #:    70
     total cpu time spent up to now is       33.5 secs

     Computing kpt #:    71
     total cpu time spent up to now is       34.0 secs

     Computing kpt #:    72
     total cpu time spent up to now is       34.4 secs

     Computing kpt #:    73
     total cpu time spent up to now is       34.9 secs

     Computing kpt #:    74
     total cpu time spent up to now is       35.4 secs

     Computing kpt #:    75
     total cpu time spent up to now is       36.3 secs

     Computing kpt #:    76
     total cpu time spent up to now is       36.8 secs

     Computing kpt #:    77
     total cpu time spent up to now is       37.2 secs

     Computing kpt #:    78
     total cpu time spent up to now is       37.6 secs

     Computing kpt #:    79
     total cpu time spent up to now is       38.0 secs

     Computing kpt #:    80
     total cpu time spent up to now is       38.4 secs

     Computing kpt #:    81
     total cpu time spent up to now is       38.9 secs

     Computing kpt #:    82
     total cpu time spent up to now is       39.4 secs

     Computing kpt #:    83
     total cpu time spent up to now is       39.8 secs

     Computing kpt #:    84
     total cpu time spent up to now is       40.3 secs

     Computing kpt #:    85
     total cpu time spent up to now is       41.0 secs

     Computing kpt #:    86
     total cpu time spent up to now is       41.4 secs

     Computing kpt #:    87
     total cpu time spent up to now is       41.8 secs

     Computing kpt #:    88
     total cpu time spent up to now is       42.1 secs

     Computing kpt #:    89
     total cpu time spent up to now is       42.6 secs

     Computing kpt #:    90
     total cpu time spent up to now is       43.1 secs

     Computing kpt #:    91
     total cpu time spent up to now is       43.5 secs

     Computing kpt #:    92
     total cpu time spent up to now is       44.0 secs

     Computing kpt #:    93
     total cpu time spent up to now is       44.4 secs

     Computing kpt #:    94
     total cpu time spent up to now is       44.8 secs

     Computing kpt #:    95
     total cpu time spent up to now is       45.3 secs

     Computing kpt #:    96
     total cpu time spent up to now is       46.0 secs

     Computing kpt #:    97
     total cpu time spent up to now is       46.4 secs

     Computing kpt #:    98
     total cpu time spent up to now is       46.8 secs

     Computing kpt #:    99
     total cpu time spent up to now is       47.3 secs

     Computing kpt #:   100
     total cpu time spent up to now is       47.7 secs

     Computing kpt #:   101
     total cpu time spent up to now is       48.1 secs

     Computing kpt #:   102
     total cpu time spent up to now is       48.5 secs

     Computing kpt #:   103
     total cpu time spent up to now is       48.8 secs

     Computing kpt #:   104
     total cpu time spent up to now is       49.2 secs

     Computing kpt #:   105
     total cpu time spent up to now is       49.5 secs

     Computing kpt #:   106
     total cpu time spent up to now is       49.8 secs

     Computing kpt #:   107
     total cpu time spent up to now is       50.1 secs

     Computing kpt #:   108
     total cpu time spent up to now is       50.4 secs

     Computing kpt #:   109
     total cpu time spent up to now is       51.2 secs

     Computing kpt #:   110
     total cpu time spent up to now is       51.8 secs

     Computing kpt #:   111
     total cpu time spent up to now is       52.2 secs

     Computing kpt #:   112
     total cpu time spent up to now is       52.7 secs

     Computing kpt #:   113
     total cpu time spent up to now is       53.2 secs

     Computing kpt #:   114
     total cpu time spent up to now is       53.6 secs

     Computing kpt #:   115
     total cpu time spent up to now is       54.2 secs

     Computing kpt #:   116
     total cpu time spent up to now is       54.9 secs

     Computing kpt #:   117
     total cpu time spent up to now is       56.0 secs

     Computing kpt #:   118
     total cpu time spent up to now is       56.6 secs

     Computing kpt #:   119
     total cpu time spent up to now is       57.5 secs

     Computing kpt #:   120
     total cpu time spent up to now is       58.2 secs

     Computing kpt #:   121
     total cpu time spent up to now is       58.6 secs

     Computing kpt #:   122
     total cpu time spent up to now is       59.3 secs

     Computing kpt #:   123
     total cpu time spent up to now is       59.8 secs

     Computing kpt #:   124
     total cpu time spent up to now is       60.2 secs

     Computing kpt #:   125
     total cpu time spent up to now is       61.0 secs

     Computing kpt #:   126
     total cpu time spent up to now is       61.4 secs

     Computing kpt #:   127
     total cpu time spent up to now is       61.8 secs

     Computing kpt #:   128
     total cpu time spent up to now is       62.2 secs

     Computing kpt #:   129
     total cpu time spent up to now is       62.5 secs

     Computing kpt #:   130
     total cpu time spent up to now is       62.9 secs

     Computing kpt #:   131
     total cpu time spent up to now is       63.3 secs

     Computing kpt #:   132
     total cpu time spent up to now is       64.0 secs

     Computing kpt #:   133
     total cpu time spent up to now is       64.8 secs

     Computing kpt #:   134
     total cpu time spent up to now is       65.4 secs

     Computing kpt #:   135
     total cpu time spent up to now is       66.5 secs

     Computing kpt #:   136
     total cpu time spent up to now is       67.1 secs

     Computing kpt #:   137
     total cpu time spent up to now is       67.6 secs

     Computing kpt #:   138
     total cpu time spent up to now is       68.2 secs

     Computing kpt #:   139
     total cpu time spent up to now is       68.8 secs

     Computing kpt #:   140
     total cpu time spent up to now is       69.2 secs

     Computing kpt #:   141
     total cpu time spent up to now is       69.9 secs

     Computing kpt #:   142
     total cpu time spent up to now is       70.4 secs

     Computing kpt #:   143
     total cpu time spent up to now is       71.3 secs

     Computing kpt #:   144
     total cpu time spent up to now is       71.7 secs

     Computing kpt #:   145
     total cpu time spent up to now is       72.2 secs

     Computing kpt #:   146
     total cpu time spent up to now is       72.6 secs

     Computing kpt #:   147
     total cpu time spent up to now is       73.0 secs

     Computing kpt #:   148
     total cpu time spent up to now is       73.3 secs

     Computing kpt #:   149
     total cpu time spent up to now is       73.8 secs

     Computing kpt #:   150
     total cpu time spent up to now is       74.1 secs

     Computing kpt #:   151
     total cpu time spent up to now is       74.6 secs

     Computing kpt #:   152
     total cpu time spent up to now is       75.3 secs

     Computing kpt #:   153
     total cpu time spent up to now is       76.3 secs

     Computing kpt #:   154
     total cpu time spent up to now is       77.0 secs

     Computing kpt #:   155
     total cpu time spent up to now is       77.5 secs

     Computing kpt #:   156
     total cpu time spent up to now is       78.2 secs

     Computing kpt #:   157
     total cpu time spent up to now is       78.8 secs

     Computing kpt #:   158
     total cpu time spent up to now is       79.3 secs

     Computing kpt #:   159
     total cpu time spent up to now is       80.0 secs

     Computing kpt #:   160
     total cpu time spent up to now is       81.0 secs

     Computing kpt #:   161
     total cpu time spent up to now is       82.3 secs

     Computing kpt #:   162
     total cpu time spent up to now is       83.5 secs

     Computing kpt #:   163
     total cpu time spent up to now is       84.2 secs

     Computing kpt #:   164
     total cpu time spent up to now is       84.7 secs

     Computing kpt #:   165
     total cpu time spent up to now is       85.5 secs

     Computing kpt #:   166
     total cpu time spent up to now is       86.7 secs

     Computing kpt #:   167
     total cpu time spent up to now is       87.2 secs

     Computing kpt #:   168
     total cpu time spent up to now is       87.9 secs

     Computing kpt #:   169
     total cpu time spent up to now is       88.9 secs

     Computing kpt #:   170
     total cpu time spent up to now is       90.5 secs

     Computing kpt #:   171
     total cpu time spent up to now is       91.7 secs

     Computing kpt #:   172
     total cpu time spent up to now is       92.7 secs

     Computing kpt #:   173
     total cpu time spent up to now is       93.5 secs

     Computing kpt #:   174
     total cpu time spent up to now is       94.3 secs

     Computing kpt #:   175
     total cpu time spent up to now is       95.2 secs

     Computing kpt #:   176
     total cpu time spent up to now is       96.2 secs

     Computing kpt #:   177
     total cpu time spent up to now is       97.0 secs

     Computing kpt #:   178
     total cpu time spent up to now is       97.5 secs

     Computing kpt #:   179
     total cpu time spent up to now is       98.0 secs

     Computing kpt #:   180
     total cpu time spent up to now is       98.5 secs

     Computing kpt #:   181
     total cpu time spent up to now is       99.0 secs

     Computing kpt #:   182
     total cpu time spent up to now is       99.4 secs

     Computing kpt #:   183
     total cpu time spent up to now is       99.8 secs

     Computing kpt #:   184
     total cpu time spent up to now is      100.2 secs

     Computing kpt #:   185
     total cpu time spent up to now is      101.0 secs

     Computing kpt #:   186
     total cpu time spent up to now is      101.6 secs

     Computing kpt #:   187
     total cpu time spent up to now is      102.3 secs

     Computing kpt #:   188
     total cpu time spent up to now is      102.9 secs

     Computing kpt #:   189
     total cpu time spent up to now is      103.5 secs

     Computing kpt #:   190
     total cpu time spent up to now is      104.0 secs

     Computing kpt #:   191
     total cpu time spent up to now is      104.6 secs

     Computing kpt #:   192
     total cpu time spent up to now is      105.1 secs

     Computing kpt #:   193
     total cpu time spent up to now is      105.9 secs

     Computing kpt #:   194
     total cpu time spent up to now is      106.5 secs

     Computing kpt #:   195
     total cpu time spent up to now is      106.9 secs

     Computing kpt #:   196
     total cpu time spent up to now is      107.4 secs

     Computing kpt #:   197
     total cpu time spent up to now is      107.7 secs

     Computing kpt #:   198
     total cpu time spent up to now is      108.1 secs

     Computing kpt #:   199
     total cpu time spent up to now is      108.8 secs

     Computing kpt #:   200
     total cpu time spent up to now is      109.5 secs

     Computing kpt #:   201
     total cpu time spent up to now is      110.1 secs

     Computing kpt #:   202
     total cpu time spent up to now is      110.8 secs

     Computing kpt #:   203
     total cpu time spent up to now is      111.4 secs

     Computing kpt #:   204
     total cpu time spent up to now is      111.8 secs

     Computing kpt #:   205
     total cpu time spent up to now is      112.3 secs

     Computing kpt #:   206
     total cpu time spent up to now is      112.7 secs

     Computing kpt #:   207
     total cpu time spent up to now is      113.1 secs

     Computing kpt #:   208
     total cpu time spent up to now is      113.6 secs

     Computing kpt #:   209
     total cpu time spent up to now is      114.0 secs

     Computing kpt #:   210
     total cpu time spent up to now is      114.4 secs

     Computing kpt #:   211
     total cpu time spent up to now is      115.3 secs

     Computing kpt #:   212
     total cpu time spent up to now is      116.2 secs

     Computing kpt #:   213
     total cpu time spent up to now is      116.7 secs

     Computing kpt #:   214
     total cpu time spent up to now is      117.2 secs

     Computing kpt #:   215
     total cpu time spent up to now is      117.6 secs

     Computing kpt #:   216
     total cpu time spent up to now is      118.0 secs

     Computing kpt #:   217
     total cpu time spent up to now is      118.5 secs

     Computing kpt #:   218
     total cpu time spent up to now is      118.9 secs

     Computing kpt #:   219
     total cpu time spent up to now is      119.5 secs

     Computing kpt #:   220
     total cpu time spent up to now is      119.9 secs

     Computing kpt #:   221
     total cpu time spent up to now is      120.5 secs

     Computing kpt #:   222
     total cpu time spent up to now is      121.3 secs

     Computing kpt #:   223
     total cpu time spent up to now is      121.8 secs

     Computing kpt #:   224
     total cpu time spent up to now is      122.2 secs

     Computing kpt #:   225
     total cpu time spent up to now is      122.7 secs

     Computing kpt #:   226
     total cpu time spent up to now is      123.2 secs

     Computing kpt #:   227
     total cpu time spent up to now is      123.7 secs

     Computing kpt #:   228
     total cpu time spent up to now is      124.2 secs

     Computing kpt #:   229
     total cpu time spent up to now is      124.7 secs

     Computing kpt #:   230
     total cpu time spent up to now is      125.2 secs

     Computing kpt #:   231
     total cpu time spent up to now is      125.9 secs

     Computing kpt #:   232
     total cpu time spent up to now is      126.4 secs

     Computing kpt #:   233
     total cpu time spent up to now is      126.9 secs

     Computing kpt #:   234
     total cpu time spent up to now is      127.4 secs

     Computing kpt #:   235
     total cpu time spent up to now is      127.8 secs

     Computing kpt #:   236
     total cpu time spent up to now is      128.2 secs

     Computing kpt #:   237
     total cpu time spent up to now is      128.7 secs

     Computing kpt #:   238
     total cpu time spent up to now is      129.1 secs

     Computing kpt #:   239
     total cpu time spent up to now is      129.6 secs

     Computing kpt #:   240
     total cpu time spent up to now is      130.0 secs

     ethr =  1.25E-08,  avg # of iterations = 19.2

     total cpu time spent up to now is      130.0 secs

     End of band structure calculation

          k = 0.0167 0.0289-0.0556 (  3386 PWs)   bands (ev):

   -22.0515 -10.4005  -5.6821  -5.6445   0.5409   1.1670   1.6358   1.7733
     2.9037   3.2954   4.9410   5.5271   5.8304   5.9067   7.6784   8.4129
     9.2903  10.0232  11.0623  11.9360

     occupation numbers 
     1.0000   1.0000   1.0000   1.0000   0.0000   0.0000   0.0000   0.0000
     0.0000   0.0000   0.0000   0.0000   0.0000   0.0000   0.0000   0.0000
     0.0000   0.0000   0.0000   0.0000

          k = 0.0167 0.0674-0.0556 (  3372 PWs)   bands (ev):

   -21.9865 -10.3209  -5.9390  -5.7901   0.6301   1.2586   1.7268   1.8647
     2.9943   3.3862   5.0310   5.6114   5.8686   6.1957   7.7672   8.5040
     9.0475  10.1532  11.1488  12.0263

     occupation numbers 
     1.0000   1.0000   1.0000   1.0000   0.0000   0.0000   0.0000   0.0000
     0.0000   0.0000   0.0000   0.0000   0.0000   0.0000   0.0000   0.0000
     0.0000   0.0000   0.0000   0.0000

          k = 0.0167 0.1058-0.0556 (  3364 PWs)   bands (ev):

   -21.8688 -10.1769  -6.3956  -6.0286   0.7908   1.4235   1.8906   2.0292
     3.1574   3.5495   5.1929   5.7499   5.9132   6.6998   7.9268   8.6155
     8.6675  10.3969  11.3042  12.1884

     occupation numbers 
     1.0000   1.0000   1.0000   1.0000   0.0000   0.0000   0.0000   0.0000
     0.0000   0.0000   0.0000   0.0000   0.0000   0.0000   0.0000   0.0000
     0.0000   0.0000   0.0000   0.0000

          k = 0.0167 0.1443-0.0556 (  3366 PWs)   bands (ev):

   -21.7004  -9.9718  -7.0044  -6.3388   1.0228   1.6616   2.1270   2.2668
     3.3925   3.7855   5.4261   5.8258   6.0532   7.3848   8.0205   8.1643
     8.9028  10.7660  11.5270  12.4221

     occupation numbers 
     1.0000   1.0000   1.0000   1.0000   0.0000   0.0000   0.0000   0.0000
     0.0000   0.0000   0.0000   0.0000   0.0000   0.0000   0.0000   0.0000
     0.0000   0.0000   0.0000   0.0000

          k = 0.0167 0.1828-0.0556 (  3358 PWs)   bands (ev):

   -21.4789  -9.7012  -7.7269  -6.6931   1.3263   1.9729   2.4360   2.5776
     3.6997   4.0939   5.7300   5.7822   6.3425   7.3102   8.2221   8.4604
     9.2095  11.2464  11.8166  12.7269

     occupation numbers 
     1.0000   1.0000   1.0000   1.0000   0.0000   0.0000   0.0000   0.0000
     0.0000   0.0000   0.0000   0.0000   0.0000   0.0000   0.0000   0.0000
     0.0000   0.0000   0.0000   0.0000

          k = 0.0167 0.2213-0.0556 (  3352 PWs)   bands (ev):

   -21.2066  -9.3708  -8.5253  -7.0631   1.7010   2.3570   2.8169   2.9614
     4.0777   4.4742   5.6806   6.0911   6.5133   6.7166   8.8306   9.1805
     9.5874  11.8078  12.1693  13.1024

     occupation numbers 
     1.0000   1.0000   1.0000   1.0000   0.0000   0.0000   0.0000   0.0000
     0.0000   0.0000   0.0000   0.0000   0.0000   0.0000   0.0000   0.0000
     0.0000   0.0000   0.0000   0.0000

          k = 0.0167 0.2598-0.0556 (  3352 PWs)   bands (ev):

   -20.8841  -9.3758  -8.9834  -7.4277   2.1466   2.8135   3.2682   3.4183
     4.5204   4.9236   5.5515   5.5972   6.5703   7.1658   9.2692  10.0351
    10.2330  12.4097  12.5798  13.5479

     occupation numbers 
     1.0000   1.0000   1.0000   1.0000   0.0000   0.0000   0.0000   0.0000
     0.0000   0.0000   0.0000   0.0000   0.0000   0.0000   0.0000   0.0000
     0.0000   0.0000   0.0000   0.0000

          k = 0.0167 0.2983-0.0556 (  3352 PWs)   bands (ev):

   -20.5105 -10.2543  -8.5384  -7.7792   2.6628   3.3392   3.7792   3.9479
     4.6158   5.1021   5.3392   5.5163   7.0835   7.6882   9.7744  10.5553
    11.3516  12.9862  13.0376  14.0625

     occupation numbers 
     1.0000   1.0000   1.0000   1.0000   0.0000   0.0000   0.0000   0.0000
     0.0000   0.0000   0.0000   0.0000   0.0000   0.0000   0.0000   0.0000
     0.0000   0.0000   0.0000   0.0000

          k = 0.0167 0.3368-0.0556 (  3350 PWs)   bands (ev):

   -20.0878 -11.1433  -8.0986  -8.0417   3.2488   3.5788   3.9817   4.4323
     4.5492   5.2387   5.6664   6.0696   7.6701   8.2829  10.3426  11.1456
    12.4774  13.4563  13.5134  14.6442

     occupation numbers 
     1.0000   1.0000   1.0000   1.0000   0.0000   0.0000   0.0000   0.0000
     0.0000   0.0000   0.0000   0.0000   0.0000   0.0000   0.0000   0.0000
     0.0000   0.0000   0.0000   0.0000

          k = 0.0167 0.3753-0.0556 (  3342 PWs)   bands (ev):

   -19.6163 -12.0274  -8.3813  -7.4975   2.6443   3.9030   4.6346   5.0842
     5.0848   5.2481   6.3283   6.7377   8.3255   8.9493  10.9671  11.8055
    13.2024  13.9029  13.9725  15.2905

     occupation numbers 
     1.0000   1.0000   1.0000   1.0000   0.0000   0.0000   0.0000   0.0000
     0.0000   0.0000   0.0000   0.0000   0.0000   0.0000   0.0000   0.0000
     0.0000   0.0000   0.0000   0.0000

          k = 0.0167 0.4138-0.0556 (  3346 PWs)   bands (ev):

   -19.0994 -12.8967  -8.6192  -6.9186   1.6932   4.6106   4.9954   5.3804
     5.8224   5.9814   7.0623   7.4805   9.0462   9.6866  11.6290  12.5321
    12.8133  13.8068  14.8439  14.9730

     occupation numbers 
     1.0000   1.0000   1.0000   1.0000   0.0000   0.0000   0.0000   0.0000
     0.0000   0.0000   0.0000   0.0000   0.0000   0.0000   0.0000   0.0000
     0.0000   0.0000   0.0000   0.0000

          k = 0.0167 0.4523-0.0556 (  3356 PWs)   bands (ev):

   -18.5381 -13.7436  -8.8170  -6.3255   0.7902   4.8505   5.4486   6.1992
     6.6328   6.8022   7.8647   8.2956   9.8257  10.4940  11.9180  12.2221
    13.1119  13.3306  13.5882  13.8707

     occupation numbers 
     1.0000   1.0000   1.0000   1.0000   0.0000   0.0000   0.0000   0.0000
     0.0000   0.0000   0.0000   0.0000   0.0000   0.0000   0.0000   0.0000
     0.0000   0.0000   0.0000   0.0000

          k = 0.0167 0.4907-0.0556 (  3366 PWs)   bands (ev):

   -17.9388 -14.5538  -8.9659  -5.7531  -0.0172   4.7827   6.2995   7.0884
     7.5128   7.6962   8.7320   9.1819  10.6411  10.8618  11.3711  11.8162
    12.2938  12.6018  13.0781  13.6382

     occupation numbers 
     1.0000   1.0000   1.0000   1.0000   0.0000   0.0000   0.0000   0.0000
     0.0000   0.0000   0.0000   0.0000   0.0000   0.0000   0.0000   0.0000
     0.0000   0.0000   0.0000   0.0000

          k = 0.0167 0.5292-0.0556 (  3348 PWs)   bands (ev):

   -17.3166 -15.3012  -9.0599  -5.2733  -0.6474   4.7358   7.2222   8.0447
     8.4590   8.6628   9.6524   9.7808  10.1400  10.6836  11.0968  11.3915
    11.6017  12.3082  12.3127  12.8210

     occupation numbers 
     1.0000   1.0000   1.0000   1.0000   0.0000   0.0000   0.0000   0.0000
     0.0000   0.0000   0.0000   0.0000   0.0000   0.0000   0.0000   0.0000
     0.0000   0.0000   0.0000   0.0000

          k = 0.0167 0.5677-0.0556 (  3360 PWs)   bands (ev):

   -16.7955 -15.8819  -9.1034  -5.0207  -0.9708   4.7134   8.2023   8.7261
[...]
    13.1821  13.3761  13.7004  14.1064

     occupation numbers 
     1.0000   1.0000   1.0000   1.0000   0.0000   0.0000   0.0000   0.0000
     0.0000   0.0000   0.0000   0.0000   0.0000   0.0000   0.0000   0.0000
     0.0000   0.0000   0.0000   0.0000

          k = 0.3167 0.7409-0.0556 (  3328 PWs)   bands (ev):

   -17.4473 -13.8779 -11.3315  -5.0953  -0.1939   6.9932   7.6195   8.0885
     8.3359   8.4505   9.0669   9.9145  10.2933  11.1170  11.9237  12.0860
    13.4381  13.6170  13.8985  14.3207

     occupation numbers 
     1.0000   1.0000   1.0000   1.0000   0.0000   0.0000   0.0000   0.0000
     0.0000   0.0000   0.0000   0.0000   0.0000   0.0000   0.0000   0.0000
     0.0000   0.0000   0.0000   0.0000

          k = 0.3167-0.3753-0.0556 (  3346 PWs)   bands (ev):

   -17.9405 -13.6285 -10.6514  -5.6268   0.3307   6.2835   7.0259   7.4319
     7.4473   7.6990   8.5743   9.1788  10.1456  11.3222  11.4434  11.5526
    13.6159  13.8889  13.9073  14.1788

     occupation numbers 
     1.0000   1.0000   1.0000   1.0000   0.0000   0.0000   0.0000   0.0000
     0.0000   0.0000   0.0000   0.0000   0.0000   0.0000   0.0000   0.0000
     0.0000   0.0000   0.0000   0.0000

          k = 0.3167-0.3368-0.0556 (  3350 PWs)   bands (ev):

   -18.3922 -13.3370  -9.9938  -6.1194   0.8486   5.6357   6.3937   6.6382
     6.8101   7.0234   8.0122   8.5117   9.8575  10.7036  11.6327  11.7402
    13.2820  13.5314  14.2514  14.2713

     occupation numbers 
     1.0000   1.0000   1.0000   1.0000   0.0000   0.0000   0.0000   0.0000
     0.0000   0.0000   0.0000   0.0000   0.0000   0.0000   0.0000   0.0000
     0.0000   0.0000   0.0000   0.0000

          k = 0.3167-0.2983-0.0556 (  3358 PWs)   bands (ev):

   -18.8012 -13.0095  -9.3946  -6.5750   1.3665   5.0533   5.8077   5.9604
     6.2371   6.4213   7.4633   7.9151   9.4050  10.1157  11.7236  12.1181
    12.9601  13.2491  14.6008  14.7347

     occupation numbers 
     1.0000   1.0000   1.0000   1.0000   0.0000   0.0000   0.0000   0.0000
     0.0000   0.0000   0.0000   0.0000   0.0000   0.0000   0.0000   0.0000
     0.0000   0.0000   0.0000   0.0000

          k = 0.3167-0.2598-0.0556 (  3358 PWs)   bands (ev):

   -19.1636 -12.6412  -8.8889  -6.9840   1.8838   4.5397   5.2859   5.4530
     5.7254   5.8927   6.9630   7.3900   8.9405   9.5962  11.4896  12.4244
    12.5608  13.6211  14.7414  15.1530

     occupation numbers 
     1.0000   1.0000   1.0000   1.0000   0.0000   0.0000   0.0000   0.0000
     0.0000   0.0000   0.0000   0.0000   0.0000   0.0000   0.0000   0.0000
     0.0000   0.0000   0.0000   0.0000

          k = 0.3167-0.2213-0.0556 (  3348 PWs)   bands (ev):

   -19.4773 -12.2394  -8.5129  -7.3388   2.3931   4.0973   4.8337   5.1531
     5.2806   5.4400   6.5236   6.9370   8.5167   9.1472  11.1409  12.0005
    12.9812  13.9019  14.3612  15.2503

     occupation numbers 
     1.0000   1.0000   1.0000   1.0000   0.0000   0.0000   0.0000   0.0000
     0.0000   0.0000   0.0000   0.0000   0.0000   0.0000   0.0000   0.0000
     0.0000   0.0000   0.0000   0.0000

          k = 0.3167-0.1828-0.0556 (  3346 PWs)   bands (ev):

   -19.7435 -11.8095  -8.2925  -7.6442   2.8881   3.7264   4.4536   4.9053
     5.0159   5.1352   6.1496   6.5567   8.1494   8.7692  10.8018  11.6276
    13.3904  13.5301  13.8350  15.1165

     occupation numbers 
     1.0000   1.0000   1.0000   1.0000   0.0000   0.0000   0.0000   0.0000
     0.0000   0.0000   0.0000   0.0000   0.0000   0.0000   0.0000   0.0000
     0.0000   0.0000   0.0000   0.0000

          k = 0.3500 0.6062-0.0556 (  3304 PWs)   bands (ev):

   -15.4180 -14.9264 -13.1987  -3.0497  -2.1579   7.5849  10.0578  10.2152
    10.6040  11.5965  11.7125  12.0228  12.0874  12.1268  12.3084  13.1778
    13.2454  13.2645  13.2973  13.5010

     occupation numbers 
     1.0000   1.0000   1.0000   0.9393   0.0616   0.0000   0.0000   0.0000
     0.0000   0.0000   0.0000   0.0000   0.0000   0.0000   0.0000   0.0000
     0.0000   0.0000   0.0000   0.0000

          k = 0.3500 0.6447-0.0556 (  3308 PWs)   bands (ev):

   -15.8235 -14.8615 -12.7334  -3.5293  -1.7220   7.7646   9.4311  10.0308
    10.2732  10.6756  11.1514  11.1630  11.7786  12.1689  12.1938  12.5209
    12.5852  13.3563  13.5321  14.2108

     occupation numbers 
     1.0000   1.0000   1.0000   0.9993   0.0011   0.0000   0.0000   0.0000
     0.0000   0.0000   0.0000   0.0000   0.0000   0.0000   0.0000   0.0000
     0.0000   0.0000   0.0000   0.0000

          k = 0.3500 0.6832-0.0556 (  3324 PWs)   bands (ev):

   -16.3286 -14.7499 -12.1231  -4.0416  -1.2768   8.0211   8.6508   9.2139
     9.7695  10.2312  10.3473  10.4044  11.4997  11.6675  11.9796  12.3589
    12.5062  13.4287  13.4739  13.7629

     occupation numbers 
     1.0000   1.0000   1.0000   1.0000   0.0000   0.0000   0.0000   0.0000
     0.0000   0.0000   0.0000   0.0000   0.0000   0.0000   0.0000   0.0000
     0.0000   0.0000   0.0000   0.0000

          k = 0.3500 0.7217-0.0556 (  3332 PWs)   bands (ev):

   -16.8449 -14.5892 -11.4634  -4.5535  -0.8352   7.8772   8.1568   8.2917
     8.9615   9.3864   9.7060  10.6087  10.8485  10.8507  12.1726  12.5092
    12.5914  12.9738  13.0171  13.7287

     occupation numbers 
     1.0000   1.0000   1.0000   1.0000   0.0000   0.0000   0.0000   0.0000
     0.0000   0.0000   0.0000   0.0000   0.0000   0.0000   0.0000   0.0000
     0.0000   0.0000   0.0000   0.0000

          k = 0.3500 0.7602-0.0556 (  3336 PWs)   bands (ev):

   -17.3422 -14.3797 -10.7988  -5.0540  -0.3901   7.1405   7.3930   7.8426
     8.2779   8.6058   9.2928  10.0767  10.4995  10.8987  11.9760  12.2422
    12.5548  12.9004  13.1531  13.9962

     occupation numbers 
     1.0000   1.0000   1.0000   1.0000   0.0000   0.0000   0.0000   0.0000
     0.0000   0.0000   0.0000   0.0000   0.0000   0.0000   0.0000   0.0000
     0.0000   0.0000   0.0000   0.0000

          k = 0.3500-0.3560-0.0556 (  3346 PWs)   bands (ev):

   -17.8060 -14.1290 -10.1606  -5.5312   0.0569   6.4409   6.5949   7.2455
     7.6522   7.8961   8.8127   9.3777  10.4339  11.2383  11.5638  11.7131
    12.9154  13.2773  13.3933  14.0873

     occupation numbers 
     1.0000   1.0000   1.0000   1.0000   0.0000   0.0000   0.0000   0.0000
     0.0000   0.0000   0.0000   0.0000   0.0000   0.0000   0.0000   0.0000
     0.0000   0.0000   0.0000   0.0000

          k = 0.3500-0.3175-0.0556 (  3354 PWs)   bands (ev):

   -18.2310 -13.8284  -9.5824  -5.9788   0.5104   5.7863   5.9449   6.6390
     7.0583   7.2582   8.2671   8.7469  10.1378  10.9374  11.6475  11.8988
    13.1868  13.4923  13.7126  13.7731

     occupation numbers 
     1.0000   1.0000   1.0000   1.0000   0.0000   0.0000   0.0000   0.0000
     0.0000   0.0000   0.0000   0.0000   0.0000   0.0000   0.0000   0.0000
     0.0000   0.0000   0.0000   0.0000

          k = 0.3500-0.2791-0.0556 (  3356 PWs)   bands (ev):

   -18.6134 -13.4857  -9.0976  -6.3888   0.9780   5.2440   5.4235   6.0856
     6.5165   6.6928   7.7446   8.1867   9.6930  10.3855  12.0261  12.0976
    13.2227  13.2473  13.9715  14.2410

     occupation numbers 
     1.0000   1.0000   1.0000   1.0000   0.0000   0.0000   0.0000   0.0000
     0.0000   0.0000   0.0000   0.0000   0.0000   0.0000   0.0000   0.0000
     0.0000   0.0000   0.0000   0.0000

          k = 0.3500-0.2406-0.0556 (  3348 PWs)   bands (ev):

   -18.9489 -13.1027  -8.7418  -6.7530   1.4547   4.8086   5.0753   5.5981
     6.0372   6.2002   7.2745   7.6979   9.2513   9.9021  11.7947  12.5732
    12.7525  13.6201  14.5555  14.8075

     occupation numbers 
     1.0000   1.0000   1.0000   1.0000   0.0000   0.0000   0.0000   0.0000
     0.0000   0.0000   0.0000   0.0000   0.0000   0.0000   0.0000   0.0000
     0.0000   0.0000   0.0000   0.0000

          k = 0.3500-0.2021-0.0556 (  3344 PWs)   bands (ev):

   -19.2370 -12.6851  -8.5450  -7.0706   1.9330   4.4250   4.9845   5.1804
     5.6246   5.7812   6.8662   7.2812   8.8547   9.4890  11.4599  12.3387
    13.0095  13.9263  14.7328  15.0451

     occupation numbers 
     1.0000   1.0000   1.0000   1.0000   0.0000   0.0000   0.0000   0.0000
     0.0000   0.0000   0.0000   0.0000   0.0000   0.0000   0.0000   0.0000
     0.0000   0.0000   0.0000   0.0000

          k = 0.3833 0.6640-0.0556 (  3310 PWs)   bands (ev):

   -15.9458 -15.1461 -12.1627  -3.8198  -1.5132   8.0393   9.1852   9.4848
     9.6584  10.7191  10.8482  11.1473  11.2672  11.2870  11.5463  12.3919
    12.6019  12.6837  12.9048  14.2559

     occupation numbers 
     1.0000   1.0000   1.0000   1.0000   0.0001   0.0000   0.0000   0.0000
     0.0000   0.0000   0.0000   0.0000   0.0000   0.0000   0.0000   0.0000
     0.0000   0.0000   0.0000   0.0000

          k = 0.3833 0.7024-0.0556 (  3322 PWs)   bands (ev):

   -16.2878 -15.2003 -11.5261  -4.1883  -1.2490   8.2515   8.3724   8.8133
     9.7623   9.9300  10.4015  10.4487  11.0286  11.4085  11.4765  11.8292
    11.9428  12.8368  12.8673  13.8258

     occupation numbers 
     1.0000   1.0000   1.0000   1.0000   0.0000   0.0000   0.0000   0.0000
     0.0000   0.0000   0.0000   0.0000   0.0000   0.0000   0.0000   0.0000
     0.0000   0.0000   0.0000   0.0000

          k = 0.3833 0.7409-0.0556 (  3332 PWs)   bands (ev):

   -16.7363 -15.0818 -10.8863  -4.5918  -0.9448   7.3313   8.0788   8.5116
     9.1781   9.5863   9.9186  10.0177  10.9015  11.0431  11.3579  11.7508
    11.9529  12.7807  13.0870  13.1888

     occupation numbers 
     1.0000   1.0000   1.0000   1.0000   0.0000   0.0000   0.0000   0.0000
     0.0000   0.0000   0.0000   0.0000   0.0000   0.0000   0.0000   0.0000
     0.0000   0.0000   0.0000   0.0000

          k = 0.3833 0.7794-0.0556 (  3334 PWs)   bands (ev):

   -17.1935 -14.8766 -10.2694  -5.0063  -0.6093   6.4947   7.3862   8.1296
     8.5439   8.8429   9.5917  10.2963  10.3579  10.6952  11.6434  11.9633
    12.0964  12.4744  12.6569  13.4436

     occupation numbers 
     1.0000   1.0000   1.0000   1.0000   0.0000   0.0000   0.0000   0.0000
     0.0000   0.0000   0.0000   0.0000   0.0000   0.0000   0.0000   0.0000
     0.0000   0.0000   0.0000   0.0000

          k = 0.3833-0.3368-0.0556 (  3352 PWs)   bands (ev):

   -17.6275 -14.6128  -9.7187  -5.4161  -0.2452   5.7846   6.7503   7.5334
     7.9423   8.1697   9.1168   9.6491  10.7279  10.7502  11.6769  11.8284
    12.1747  12.5153  12.9317  13.7997

     occupation numbers 
     1.0000   1.0000   1.0000   1.0000   0.0000   0.0000   0.0000   0.0000
     0.0000   0.0000   0.0000   0.0000   0.0000   0.0000   0.0000   0.0000
     0.0000   0.0000   0.0000   0.0000

          k = 0.3833-0.2983-0.0556 (  3358 PWs)   bands (ev):

   -18.0231 -14.2995  -9.2584  -5.8037   0.1512   5.2484   6.1779   6.9548
     7.3759   7.5683   8.5885   9.0548  10.4715  11.1653  11.2512  11.9508
    12.6400  13.0052  13.1326  13.8611

     occupation numbers 
     1.0000   1.0000   1.0000   1.0000   0.0000   0.0000   0.0000   0.0000
     0.0000   0.0000   0.0000   0.0000   0.0000   0.0000   0.0000   0.0000
     0.0000   0.0000   0.0000   0.0000

          k = 0.3833-0.2598-0.0556 (  3358 PWs)   bands (ev):

   -18.3779 -13.9393  -8.9260  -6.1612   0.5721   4.9248   5.6734   6.4344
     6.8647   7.0394   8.0925   8.5308  10.0399  10.7264  11.6641  12.2461
    12.9747  13.3130  13.5518  13.5722

     occupation numbers 
     1.0000   1.0000   1.0000   1.0000   0.0000   0.0000   0.0000   0.0000
     0.0000   0.0000   0.0000   0.0000   0.0000   0.0000   0.0000   0.0000
     0.0000   0.0000   0.0000   0.0000

          k = 0.3833-0.2213-0.0556 (  3350 PWs)   bands (ev):

   -18.6866 -13.5382  -8.7467  -6.4793   1.0105   4.8341   5.2458   5.9813
     6.4175   6.5832   7.6520   8.0784   9.6213  10.2791  12.1056  12.1686
    13.1196  13.3035  13.8960  14.1904

     occupation numbers 
     1.0000   1.0000   1.0000   1.0000   0.0000   0.0000   0.0000   0.0000
     0.0000   0.0000   0.0000   0.0000   0.0000   0.0000   0.0000   0.0000
     0.0000   0.0000   0.0000   0.0000

          k = 0.4167 0.7217-0.0556 (  3302 PWs)   bands (ev):

   -16.3444 -15.5009 -10.9087  -4.3997  -1.1629   7.3218   8.7629   8.9762
     9.1112  10.0607  10.2131  10.4903  10.6319  10.6444  11.0298  11.7368
    12.0454  12.0808  12.4647  13.7564

     occupation numbers 
     1.0000   1.0000   1.0000   1.0000   0.0000   0.0000   0.0000   0.0000
     0.0000   0.0000   0.0000   0.0000   0.0000   0.0000   0.0000   0.0000
     0.0000   0.0000   0.0000   0.0000

          k = 0.4167 0.7602-0.0556 (  3322 PWs)   bands (ev):

   -16.6232 -15.5120 -10.3236  -4.6684  -1.0185   6.4667   8.3377   8.9048
     9.3413   9.4619   9.8621  10.0432  10.5248  10.8690  10.9480  11.3142
    11.5874  12.3692  12.4522  13.4242

     occupation numbers 
     1.0000   1.0000   1.0000   1.0000   0.0000   0.0000   0.0000   0.0000
     0.0000   0.0000   0.0000   0.0000   0.0000   0.0000   0.0000   0.0000
     0.0000   0.0000   0.0000   0.0000

          k = 0.4167 0.7987-0.0556 (  3350 PWs)   bands (ev):

   -17.0128 -15.3350  -9.8005  -4.9721  -0.8070   5.7427   7.6816   8.4721
     8.8779   9.1529   9.7002   9.9230  10.5794  10.6213  10.9959  11.3312
    11.7310  12.3515  12.7379  12.7868

     occupation numbers 
     1.0000   1.0000   1.0000   1.0000   0.0000   0.0000   0.0000   0.0000
     0.0000   0.0000   0.0000   0.0000   0.0000   0.0000   0.0000   0.0000
     0.0000   0.0000   0.0000   0.0000

          k = 0.4167-0.3175-0.0556 (  3354 PWs)   bands (ev):

   -17.4057 -15.0629  -9.3660  -5.2903  -0.5297   5.1954   7.0810   7.8887
     8.2994   8.5165   9.4803   9.9900  10.1275  10.8745  11.3598  11.6354
    11.7861  12.1678  12.5614  13.1938

     occupation numbers 
     1.0000   1.0000   1.0000   1.0000   0.0000   0.0000   0.0000   0.0000
     0.0000   0.0000   0.0000   0.0000   0.0000   0.0000   0.0000   0.0000
     0.0000   0.0000   0.0000   0.0000

          k = 0.4167-0.2791-0.0556 (  3370 PWs)   bands (ev):

   -17.7709 -14.7364  -9.0637  -5.6032  -0.2006   4.8602   6.5434   7.3400
     7.7607   7.9516   8.9729   9.4346  10.6044  10.8330  11.5868  11.6198
    12.0210  12.3125  12.9690  13.6145

     occupation numbers 
     1.0000   1.0000   1.0000   1.0000   0.0000   0.0000   0.0000   0.0000
     0.0000   0.0000   0.0000   0.0000   0.0000   0.0000   0.0000   0.0000
     0.0000   0.0000   0.0000   0.0000

          k = 0.4167-0.2406-0.0556 (  3358 PWs)   bands (ev):

   -18.0957 -14.3592  -8.9081  -5.8959   0.1731   4.7678   6.0728   6.8533
     7.2805   7.4591   8.5042   8.9470  10.4353  11.1136  11.1540  12.0442
    12.5719  12.9080  13.0673  13.8031

     occupation numbers 
     1.0000   1.0000   1.0000   1.0000   0.0000   0.0000   0.0000   0.0000
     0.0000   0.0000   0.0000   0.0000   0.0000   0.0000   0.0000   0.0000
     0.0000   0.0000   0.0000   0.0000

          k = 0.4500 0.7794-0.0556 (  3342 PWs)   bands (ev):

   -16.6114 -15.7691  -9.8278  -4.7916  -1.0256   5.7295   8.6133   8.7295
     9.2207   9.6213   9.8333  10.0519  10.2036  10.2130  10.8369  11.2995
    11.6471  11.6665  12.4053  13.3209

     occupation numbers 
     1.0000   1.0000   1.0000   1.0000   0.0000   0.0000   0.0000   0.0000
     0.0000   0.0000   0.0000   0.0000   0.0000   0.0000   0.0000   0.0000
     0.0000   0.0000   0.0000   0.0000

          k = 0.4500 0.8179-0.0556 (  3346 PWs)   bands (ev):

   -16.8269 -15.7139  -9.4222  -4.9595  -0.9421   5.1666   8.0457   8.8702
     9.0707   9.2705   9.5374   9.9125  10.2945  10.5532  10.6274  11.0004
    11.4730  12.0707  12.3204  13.1518

     occupation numbers 
     1.0000   1.0000   1.0000   1.0000   0.0000   0.0000   0.0000   0.0000
     0.0000   0.0000   0.0000   0.0000   0.0000   0.0000   0.0000   0.0000
     0.0000   0.0000   0.0000   0.0000

          k = 0.4500-0.2983-0.0556 (  3354 PWs)   bands (ev):

   -17.1518 -15.4616  -9.1440  -5.1648  -0.7674   4.8185   7.4813   8.3105
     8.7208   8.9358   9.5301   9.8884  10.4091  10.4457  10.8477  11.1191
    11.7195  12.1414  12.5490  12.5824

     occupation numbers 
     1.0000   1.0000   1.0000   1.0000   0.0000   0.0000   0.0000   0.0000
     0.0000   0.0000   0.0000   0.0000   0.0000   0.0000   0.0000   0.0000
     0.0000   0.0000   0.0000   0.0000

          k = 0.4500-0.2598-0.0556 (  3350 PWs)   bands (ev):

   -17.4751 -15.1279  -9.0193  -5.3827  -0.5129   4.7148   6.9793   7.7937
     8.2109   8.4076   9.4151   9.8843  10.0480  10.9101  11.2883  11.5262
    11.6814  12.0650  12.5421  13.1030

     occupation numbers 
     1.0000   1.0000   1.0000   1.0000   0.0000   0.0000   0.0000   0.0000
     0.0000   0.0000   0.0000   0.0000   0.0000   0.0000   0.0000   0.0000
     0.0000   0.0000   0.0000   0.0000

          k = 0.4833 0.8372-0.0556 (  3358 PWs)   bands (ev):

   -16.7454 -15.9088  -9.1732  -4.9888  -0.9881   4.8049   8.4270   8.5344
     9.2607   9.4016   9.6871   9.8326   9.9886   9.9966  10.7998  11.0808
    11.4435  11.4570  12.5217  13.1029

     occupation numbers 
     1.0000   1.0000   1.0000   1.0000   0.0000   0.0000   0.0000   0.0000
     0.0000   0.0000   0.0000   0.0000   0.0000   0.0000   0.0000   0.0000
     0.0000   0.0000   0.0000   0.0000

          k = 0.4833-0.2791-0.0556 (  3362 PWs)   bands (ev):

   -16.8962 -15.7829  -9.0757  -5.0608  -0.9273   4.6844   7.9473   8.7947
     8.9783   9.1999   9.4290   9.8553  10.2369  10.4518  10.5201  10.8952
    11.4354  11.9694  12.2961  13.0539

     occupation numbers 
     1.0000   1.0000   1.0000   1.0000   0.0000   0.0000   0.0000   0.0000
     0.0000   0.0000   0.0000   0.0000   0.0000   0.0000   0.0000   0.0000
     0.0000   0.0000   0.0000   0.0000

     the Fermi energy is    -2.6027 ev

     Writing output data file Grafene.save/

     init_run     :      0.11s CPU      0.13s WALL (       1 calls)
     electrons    :    126.95s CPU    129.79s WALL (       1 calls)

     Called by init_run:
     wfcinit      :      0.00s CPU      0.00s WALL (       1 calls)
     wfcinit:atom :      0.12s CPU      0.12s WALL (     240 calls)
     wfcinit:wfcr :      7.32s CPU      8.90s WALL (     240 calls)
     potinit      :      0.01s CPU      0.02s WALL (       1 calls)
     hinit0       :      0.08s CPU      0.09s WALL (       1 calls)

     Called by electrons:
     c_bands      :    126.94s CPU    129.77s WALL (       1 calls)
     v_of_rho     :      0.01s CPU      0.01s WALL (       1 calls)
     v_h          :      0.00s CPU      0.00s WALL (       1 calls)
     v_xc         :      0.00s CPU      0.01s WALL (       1 calls)

     Called by c_bands:
     init_us_2    :      0.02s CPU      0.03s WALL (     240 calls)
     cegterg      :    119.04s CPU    119.89s WALL (     323 calls)

     Called by sum_band:

     Called by *egterg:
     h_psi        :     83.53s CPU     96.54s WALL (    5163 calls)
     g_psi        :      0.67s CPU      0.81s WALL (    4600 calls)
     cdiaghg      :      5.79s CPU      6.47s WALL (    4840 calls)
     cegterg:over :     15.94s CPU     10.55s WALL (    4600 calls)
     cegterg:upda :     11.78s CPU      8.05s WALL (    4600 calls)
     cegterg:last :      6.75s CPU      4.17s WALL (     999 calls)

     Called by h_psi:
     h_psi:pot    :     83.22s CPU     96.18s WALL (    5163 calls)
     h_psi:calbec :      0.56s CPU      0.70s WALL (    5163 calls)
     vloc_psi     :     81.82s CPU     94.72s WALL (    5163 calls)
     add_vuspsi   :      0.83s CPU      0.74s WALL (    5163 calls)

     General routines
     calbec       :      0.55s CPU      0.69s WALL (    5163 calls)
     fft          :      0.00s CPU      0.01s WALL (       3 calls)
     fftw         :     71.74s CPU     82.75s WALL (  122882 calls)
     davcio       :      0.00s CPU      0.57s WALL (     480 calls)


     PWSCF        :   2m 7.25s CPU   2m11.42s WALL


   This run was terminated on:  17:58:49   3May2021            

=------------------------------------------------------------------------------=
   JOB DONE.
=------------------------------------------------------------------------------=
