<UPF version="2.0.1">
<PP_INFO>
Generated by new atomic code, or converted to UPF format
Author:
Generation date:
Pseudopotential type: US
Element: C
Functional:  SLA  LYP  B88  BLYP
Suggested minimum cutoff for wavefunctions:   0. Ry
Suggested minimum cutoff for charge density:   0. Ry
The Pseudo was generated with a Non-Relativistic Calculation
L component and cutoff radius for Local Potential:  0   0.0000
Valence configuration:
nl pn  l   occ       Rcut    Rcut US       E pseu
2S  0  0  2.00     10.000      1.100     0.000000
2P  0  1  2.00     10.000      1.100     0.000000
Generation configuration: not available.
</PP_INFO>
<!--
END OF HUMAN READABLE SECTION
-->
<PP_HEADER generated="Generated by new atomic code, or converted to UPF format" author="" date="" comment="" element="C " pseudo_type="US" relativistic="no" is_ultrasoft="true" is_paw="false" is_coulomb="false" has_so="false" has_wfc="false" has_gipaw="false" paw_as_gipaw="false" core_correction="false" functional=" SLA  LYP  B88  BLYP" z_valence="4.000000000000e0" total_psenergy="-1.070828263569e1" wfc_cutoff="0.000000000000e0" rho_cutoff="0.000000000000e0" l_max="1" l_max_rho="0" l_local="0" mesh_size="721" number_of_wfc="2" number_of_proj="4"/>
<PP_MESH mesh="721" rmax="8.240328872550e1" zmesh="6.000000000000e0">
<PP_R>
0.000000000000000e0 7.061801513330000e-6 1.424431466800000e-5 2.154960286100000e-5
2.897976476030000e-5 3.653693490770000e-5 4.422328433180001e-5 5.204102117220000e-5
5.999239131330000e-5 6.807967902989999e-5 7.630520764330000e-5 8.467134018869999e-5
9.318048009409999e-5 1.018350718710000e-4 1.106376018150000e-4 1.195905987240000e-4
1.286966346210000e-4 1.379583254920000e-4 1.473783320430000e-4 1.569593604590000e-4
1.667041631850000e-4 1.766155397140000e-4 1.866963373910000e-4 1.969494522360000e-4
2.073778297700000e-4 2.179844658640000e-4 2.287724075990000e-4 2.397447541430000e-4
2.509046576370000e-4 2.622553241070000e-4 2.738000143790000e-4 2.855420450190000e-4
2.974847892850000e-4 3.096316780980000e-4 3.219862010220000e-4 3.345519072730000e-4
3.473324067360000e-4 3.603313710010001e-4 3.735525344180000e-4 3.869996951730000e-4
4.006767163730000e-4 4.145875271630000e-4 4.287361238490001e-4 4.431265710500000e-4
4.577630028610000e-4 4.726496240480000e-4 4.877907112490000e-4 5.031906142030000e-4
5.188537570070000e-4 5.347846393769999e-4 5.509878379480000e-4 5.674680075850000e-4
5.842298827220000e-4 6.012782787210000e-4 6.186180932570000e-4 6.362543077230000e-4
6.541919886610000e-4 6.724362892219999e-4 6.909924506379999e-4 7.098658037370001e-4
7.290617704659999e-4 7.485858654569999e-4 7.684436976040000e-4 7.886409716770000e-4
8.091834899640000e-4 8.300771539299999e-4 8.513279659230001e-4 8.729420308890001e-4
8.949255581310000e-4 9.172848630899999e-4 9.400263691630000e-4 9.631566095429999e-4
9.866822291020000e-4 1.010609986300000e-3 1.034946755100000e-3 1.059699527010000e-3
1.084875413010000e-3 1.110481645640000e-3 1.136525581080000e-3 1.163014701250000e-3
1.189956615960000e-3 1.217359065110000e-3 1.245229920880000e-3 1.273577190030000e-3
1.302409016180000e-3 1.331733682170000e-3 1.361559612390000e-3 1.391895375270000e-3
1.422749685670000e-3 1.454131407450000e-3 1.486049555970000e-3 1.518513300690000e-3
1.551531967820000e-3 1.585115042990000e-3 1.619272173950000e-3 1.654013173400000e-3
1.689348021750000e-3 1.725286870020000e-3 1.761840042740000e-3 1.799018040940000e-3
1.836831545130000e-3 1.875291418400000e-3 1.914408709530000e-3 1.954194656160000e-3
1.994660688020000e-3 2.035818430210000e-3 2.077679706580000e-3 2.120256543040000e-3
2.163561171090000e-3 2.207606031330000e-3 2.252403776990000e-3 2.297967277580000e-3
2.344309622630000e-3 2.391444125390000e-3 2.439384326700000e-3 2.488143998840000e-3
2.537737149520000e-3 2.588178025910000e-3 2.639481118679999e-3 2.691661166220000e-3
2.744733158850000e-3 2.798712343130001e-3 2.853614226230000e-3 2.909454580390000e-3
2.966249447480000e-3 3.024015143560000e-3 3.082768263600000e-3 3.142525686230000e-3
3.203304578590000e-3 3.265122401300000e-3 3.327996913420000e-3 3.391946177569999e-3
3.456988565140000e-3 3.523142761560000e-3 3.590427771630000e-3 3.658862925050000e-3
3.728467881910000e-3 3.799262638360000e-3 3.871267532380001e-3 3.944503249559999e-3
4.018990829130001e-3 4.094751669910000e-3 4.171807536530000e-3 4.250180565640000e-3
4.329893272320001e-3 4.410968556460000e-3 4.493429709440000e-3 4.577300420750000e-3
4.662604784809999e-3 4.749367307930000e-3 4.837612915290000e-3 4.927366958150000e-3
5.018655221110000e-3 5.111503929529999e-3 5.205939757030000e-3 5.301989833210000e-3
5.399681751390000e-3 5.499043576580000e-3 5.600103853490000e-3 5.702891614800000e-3
5.807436389440000e-3 5.913768211090000e-3 6.021917626840000e-3 6.131915705909999e-3
6.243794048630001e-3 6.357584795479999e-3 6.473320636340000e-3 6.591034819879999e-3
6.710761163100000e-3 6.832534061070000e-3 6.956388496779999e-3 7.082360051219999e-3
7.210484913569999e-3 7.340799891630000e-3 7.473342422369999e-3 7.608150582690000e-3
7.745263100380000e-3 7.884719365200000e-3 8.026559440240000e-3 8.170824073409999e-3
8.317554709140001e-3 8.466793500320000e-3 8.618583320350002e-3 8.772967775509999e-3
8.929991217470000e-3 9.089698756029998e-3 9.252136272070000e-3 9.417350430749998e-3
9.585388694900001e-3 9.756299338649999e-3 9.930131461329999e-3 1.010693500160000e-2
1.028676075150000e-2 1.046966037180000e-2 1.065568640570000e-2 1.084489229510000e-2
1.103733239510000e-2 1.123306199010000e-2 1.143213730930000e-2 1.163461554330000e-2
1.184055486010000e-2 1.205001442210000e-2 1.226305440300000e-2 1.247973600500000e-2
1.270012147670000e-2 1.292427413040000e-2 1.315225836090000e-2 1.338413966360000e-2
1.361998465350000e-2 1.385986108450000e-2 1.410383786820000e-2 1.435198509460000e-2
1.460437405150000e-2 1.486107724530000e-2 1.512216842200000e-2 1.538772258800000e-2
1.565781603190000e-2 1.593252634620000e-2 1.621193244990000e-2 1.649611461110000e-2
1.678515446970000e-2 1.707913506120000e-2 1.737814084080000e-2 1.768225770680000e-2
1.799157302620000e-2 1.830617565930000e-2 1.862615598540000e-2 1.895160592850000e-2
1.928261898430000e-2 1.961929024620000e-2 1.996171643360000e-2 2.030999591870000e-2
2.066422875550000e-2 2.102451670830000e-2 2.139096328090000e-2 2.176367374610000e-2
2.214275517670000e-2 2.252831647520000e-2 2.292046840600000e-2 2.331932362680000e-2
2.372499672100000e-2 2.413760423050000e-2 2.455726468960000e-2 2.498409865850000e-2
2.541822875840000e-2 2.585977970650000e-2 2.630887835190000e-2 2.676565371180000e-2
2.723023700900000e-2 2.770276170930000e-2 2.818336355990000e-2 2.867218062840000e-2
2.916935334240000e-2 2.967502453020000e-2 3.018933946120000e-2 3.071244588810000e-2
3.124449408940000e-2 3.178563691210000e-2 3.233602981620000e-2 3.289583091880000e-2
3.346520104000001e-2 3.404430374880000e-2 3.463330541020000e-2 3.523237523300000e-2
3.584168531830001e-2 3.646141070920000e-2 3.709172944080000e-2 3.773282259139999e-2
3.838487433460000e-2 3.904807199250000e-2 3.972260608870000e-2 4.040867040380000e-2
4.110646203100000e-2 4.181618143220000e-2 4.253803249610000e-2 4.327222259650000e-2
4.401896265200000e-2 4.477846718660000e-2 4.555095439120000e-2 4.633664618650000e-2
4.713576828650000e-2 4.794855026360000e-2 4.877522561420000e-2 4.961603182620000e-2
5.047121044700001e-2 5.134100715280000e-2 5.222567181940000e-2 5.312545859380000e-2
5.404062596729999e-2 5.497143684990000e-2 5.591815864550000e-2 5.688106332889999e-2
5.786042752410000e-2 5.885653258330001e-2 5.986966466840000e-2 6.090011483250000e-2
6.194817910400000e-2 6.301415857160000e-2 6.409835947050000e-2 6.520109327060000e-2
6.632267676600000e-2 6.746343216600000e-2 6.862368718750000e-2 6.980377514940001e-2
7.100403506800000e-2 7.222481175480000e-2 7.346645591530000e-2 7.472932424990000e-2
7.601377955620001e-2 7.732019083340001e-2 7.864893338809999e-2 8.000038894239999e-2
8.137494574320002e-2 8.277299867420000e-2 8.419494936900001e-2 8.564120632630001e-2
8.711218502800000e-2 8.860830805760001e-2 9.013000522240000e-2 9.167771367650001e-2
9.325187804670000e-2 9.485295055980000e-2 9.648139117310000e-2 9.813766770590000e-2
9.982225597459999e-2 1.015356399290000e-1 1.032783117900000e-1 1.050507721950000e-1
1.068535303370000e-1 1.086871041140000e-1 1.105520202750000e-1 1.124488145750000e-1
1.143780319270000e-1 1.163402265560000e-1 1.183359621650000e-1 1.203658120880000e-1
1.224303594630000e-1 1.245301973940000e-1 1.266659291240000e-1 1.288381682070000e-1
1.310475386860000e-1 1.332946752700000e-1 1.355802235170000e-1 1.379048400220000e-1
1.402691926020000e-1 1.426739604890000e-1 1.451198345280000e-1 1.476075173690000e-1
1.501377236770000e-1 1.527111803310000e-1 1.553286266340000e-1 1.579908145290000e-1
1.606985088110000e-1 1.634524873480000e-1 1.662535413040000e-1 1.691024753680000e-1
1.720001079850000e-1 1.749472715860000e-1 1.779448128370000e-1 1.809935928720000e-1
1.840944875460000e-1 1.872483876870000e-1 1.904561993500000e-1 1.937188440760000e-1
1.970372591610000e-1 2.004123979200000e-1 2.038452299650000e-1 2.073367414840000e-1
2.108879355190000e-1 2.144998322600000e-1 2.181734693350000e-1 2.219099021090000e-1
2.257102039870000e-1 2.295754667210000e-1 2.335068007280000e-1 2.375053354030000e-1
2.415722194470000e-1 2.457086211990000e-1 2.499157289650000e-1 2.541947513680000e-1
2.585469176860000e-1 2.629734782140000e-1 2.674757046160000e-1 2.720548902950000e-1
2.767123507630000e-1 2.814494240170000e-1 2.862674709280000e-1 2.911678756260000e-1
2.961520459040000e-1 3.012214136160000e-1 3.063774350950000e-1 3.116215915640000e-1
3.169553895700000e-1 3.223803614090000e-1 3.278980655710000e-1 3.335100871840000e-1
3.392180384750000e-1 3.450235592270000e-1 3.509283172540000e-1 3.569340088790000e-1
3.630423594200000e-1 3.692551236890000e-1 3.755740864920000e-1 3.820010631460000e-1
3.885378999960000e-1 3.951864749500000e-1 4.019486980130000e-1 4.088265118420000e-1
4.158218922990001e-1 4.229368490230000e-1 4.301734260020000e-1 4.375337021650000e-1
4.450197919770000e-1 4.526338460470000e-1 4.603780517450000e-1 4.682546338310000e-1
4.762658550950000e-1 4.844140170070000e-1 4.927014603740000e-1 5.011305660200000e-1
5.097037554629999e-1 5.184234916150000e-1 5.272922794859999e-1 5.363126669090001e-1
5.454872452670000e-1 5.548186502370001e-1 5.643095625510000e-1 5.739627087670000e-1
5.837808620440001e-1 5.937668429500000e-1 6.039235202630000e-1 6.142538117990000e-1
6.247606852530000e-1 6.354471590439999e-1 6.463163031910000e-1 6.573712401870000e-1
6.686151459040000e-1 6.800512504960000e-1 6.916828393360000e-1 7.035132539540000e-1
7.155458929989999e-1 7.277842132160000e-1 7.402317304369999e-1 7.528920205930000e-1
7.657687207400000e-1 7.788655301060000e-1 7.921862111490000e-1 8.057345906440000e-1
8.195145607790000e-1 8.335300802710000e-1 8.477851755090001e-1 8.622839417050001e-1
8.770305440750001e-1 8.920292190320001e-1 9.072842754050001e-1 9.228000956759999e-1
9.385811372410000e-1 9.546319336869999e-1 9.709570960970000e-1 9.875613143760001e-1
1.004449358590000e0 1.021626080360000e0 1.039096414210000e0 1.056865379030000e0
1.074938079510000e0 1.093319707580000e0 1.112015543940000e0 1.131030959520000e0
1.150371417090000e0 1.170042472790000e0 1.190049777740000e0 1.210399079640000e0
1.231096224460000e0 1.252147158080000e0 1.273557928040000e0 1.295334685230000e0
1.317483685680000e0 1.340011292390000e0 1.362923977100000e0 1.386228322180000e0
1.409931022510000e0 1.434038887420000e0 1.458558842640000e0 1.483497932270000e0
1.508863320830000e0 1.534662295310000e0 1.560902267260000e0 1.587590774900000e0
1.614735485340000e0 1.642344196710000e0 1.670424840480000e0 1.698985483660000e0
1.728034331180000e0 1.757579728200000e0 1.787630162560000e0 1.818194267150000e0
1.849280822450000e0 1.880898759030000e0 1.913057160110000e0 1.945765264170000e0
1.979032467630000e0 2.012868327500000e0 2.047282564170000e0 2.082285064190000e0
2.117885883100000e0 2.154095248330000e0 2.190923562110000e0 2.228381404530000e0
2.266479536480000e0 2.305228902830000e0 2.344640635510000e0 2.384726056770000e0
2.425496682350000e0 2.466964224880000e0 2.509140597180000e0 2.552037915700000e0
2.595668504010000e0 2.640044896340000e0 2.685179841160000e0 2.731086304870000e0
2.777777475520000e0 2.825266766560000e0 2.873567820750000e0 2.922694514060000e0
2.972660959630000e0 3.023481511850000e0 3.075170770480000e0 3.127743584850000e0
3.181215058120000e0 3.235600551590000e0 3.290915689170000e0 3.347176361840000e0
3.404398732180000e0 3.462599239080000e0 3.521794602420000e0 3.582001827890000e0
3.643238211850000e0 3.705521346330000e0 3.768869124070000e0 3.833299743660000e0
3.898831714780000e0 3.965483863480000e0 4.033275337640000e0 4.102225612450000e0
4.172354495970000e0 4.243682134890000e0 4.316229020250000e0 4.390015993360000e0
4.465064251800000e0 4.541395355490000e0 4.619031232860000e0 4.697994187200000e0
4.778306903050000e0 4.859992452690000e0 4.943074302800000e0 5.027576321180000e0
5.113522783640000e0 5.200938380930000e0 5.289848225850000e0 5.380277860490000e0
5.472253263530000e0 5.565800857720000e0 5.660947517470000e0 5.757720576590000e0
5.856147836100000e0 5.956257572240000e0 6.058078544600000e0 6.161640004390000e0
6.266971702800000e0 6.374103899590000e0 6.483067371760000e0 6.593893422430000e0
6.706613889760000e0 6.821261156170000e0 6.937868157590000e0 7.056468392960000e0
7.177095933840000e0 7.299785434170000e0 7.424572140290000e0 7.551491901000000e0
7.680581177880000e0 7.811877055800000e0 7.945417253510000e0 8.081240134530001e0
8.219384718140001e0 8.359890690609999e0 8.502798416590000e0 8.648148950710000e0
8.795984049350000e0 8.946346182679999e0 9.099278546830000e0 9.254825076310000e0
9.413030456630000e0 9.573940137139999e0 9.737600344060001e0 9.904058093820000e0
1.007336120650000e1 1.024555831960000e1 1.042069890200000e1 1.059883326830000e1
1.078001259290000e1 1.096428892530000e1 1.115171520440000e1 1.134234527410000e1
1.153623389880000e1 1.173343677900000e1 1.193401056720000e1 1.213801288440000e1
1.234550233650000e1 1.255653853120000e1 1.277118209510000e1 1.298949469120000e1
1.321153903640000e1 1.343737891980000e1 1.366707922090000e1 1.390070592800000e1
1.413832615760000e1 1.438000817340000e1 1.462582140600000e1 1.487583647280000e1
1.513012519820000e1 1.538876063440000e1 1.565181708250000e1 1.591937011340000e1
1.619149659000000e1 1.646827468900000e1 1.674978392320000e1 1.703610516500000e1
1.732732066880000e1 1.762351409510000e1 1.792477053480000e1 1.823117653280000e1
1.854282011380000e1 1.885979080680000e1 1.918217967150000e1 1.951007932390000e1
1.984358396320000e1 2.018278939880000e1 2.052779307800000e1 2.087869411370000e1
2.123559331270000e1 2.159859320550000e1 2.196779807490000e1 2.234331398620000e1
2.272524881800000e1 2.311371229270000e1 2.350881600830000e1 2.391067347060000e1
2.431940012530000e1 2.473511339170000e1 2.515793269630000e1 2.558797950680000e1
2.602537736730000e1 2.647025193390000e1 2.692273101020000e1 2.738294458490000e1
2.785102486840000e1 2.832710633110000e1 2.881132574190000e1 2.930382220780000e1
2.980473721340000e1 3.031421466200000e1 3.083240091650000e1 3.135944484180000e1
3.189549784760001e1 3.244071393130000e1 3.299524972300000e1 3.355926453020000e1
3.413292038340000e1 3.471638208280000e1 3.530981724560000e1 3.591339635440000e1
3.652729280570000e1 3.715168296000000e1 3.778674619260000e1 3.843266494490000e1
3.908962477680000e1 3.975781442010000e1 4.043742583290000e1 4.112865425430001e1
4.183169826080000e1 4.254675982350000e1 4.327404436570000e1 4.401376082210000e1
4.476612169890000e1 4.553134313500000e1 4.630964496350000e1 4.710125077560000e1
4.790638798420001e1 4.872528788980000e1 4.955818574640000e1 5.040532082950000e1
5.126693650450001e1 5.214328029700000e1 5.303460396360000e1 5.394116356440001e1
5.486321953630000e1 5.580103676820000e1 5.675488467690000e1 5.772503728440000e1
5.871177329670001e1 5.971537618410000e1 6.073613426210001e1 6.177434077500000e1
6.283029397920000e1 6.390429722980000e1 6.499665906700000e1 6.610769330540001e1
6.723771912340000e1 6.838706115580000e1 6.955604958610000e1 7.074502024220000e1
7.195431469240001e1 7.318428034340001e1 7.443527054070000e1 7.570764466950000e1
7.700176825830001e1 7.831801308380000e1 7.965675727760000e1 8.101838543500000e1
8.240328872550000e1
</PP_R>
<PP_RAB>
7.002124792839998e-6 7.121816343920000e-6 7.243553855010000e-6 7.367372298960001e-6
7.493307246410000e-6 7.621394876019999e-6 7.751671984910001e-6 7.884175999150001e-6
8.018944984590000e-6 8.156017657760001e-6 8.295433396970001e-6 8.437232253670002e-6
8.581454963930002e-6 8.728142960140001e-6 8.877338382929999e-6 9.029084093249999e-6
9.183423684720001e-6 9.340401496100000e-6 9.500062624079998e-6 9.662452936220001e-6
9.827619084120000e-6 9.995608516800001e-6 1.016646949440000e-5 1.034025110190000e-5
1.051700326350000e-5 1.069677675660000e-5 1.087962322670000e-5 1.106559520200000e-5
1.125474610870000e-5 1.144713028620000e-5 1.164280300270000e-5 1.184182047110000e-5
1.204423986550000e-5 1.225011933690000e-5 1.245951803050000e-5 1.267249610260000e-5
1.288911473750000e-5 1.310943616570000e-5 1.333352368130000e-5 1.356144166020000e-5
1.379325557880000e-5 1.402903203290000e-5 1.426883875640000e-5 1.451274464110000e-5
1.476081975660000e-5 1.501313536990000e-5 1.526976396650000e-5 1.553077927090000e-5
1.579625626750000e-5 1.606627122300000e-5 1.634090170720000e-5 1.662022661630000e-5
1.690432619490000e-5 1.719328205930000e-5 1.748717722090000e-5 1.778609611020000e-5
1.809012460070000e-5 1.839935003390000e-5 1.871386124430000e-5 1.903374858500000e-5
1.935910395330000e-5 1.969002081750000e-5 2.002659424380000e-5 2.036892092300000e-5
2.071709919900000e-5 2.107122909670000e-5 2.143141235090000e-5 2.179775243500000e-5
2.217035459170000e-5 2.254932586220000e-5 2.293477511760000e-5 2.332681309020000e-5
2.372555240470000e-5 2.413110761140000e-5 2.454359521830000e-5 2.496313372520000e-5
2.538984365730000e-5 2.582384760030000e-5 2.626527023490000e-5 2.671423837340000e-5
2.717088099560001e-5 2.763532928620000e-5 2.810771667210000e-5 2.858817886110000e-5
2.907685388070000e-5 2.957388211770000e-5 3.007940635880000e-5 3.059357183130000e-5
3.111652624490000e-5 3.164841983440000e-5 3.218940540250000e-5 3.273963836390000e-5
3.329927678990000e-5 3.386848145370000e-5 3.444741587680000e-5 3.503624637590000e-5
3.563514211070000e-5 3.624427513220000e-5 3.686382043260000e-5 3.749395599520000e-5
3.813486284590000e-5 3.878672510470000e-5 3.944973003910000e-5 4.012406811750000e-5
4.080993306430000e-5 4.150752191510000e-5 4.221703507379999e-5 4.293867636970000e-5
4.367265311650001e-5 4.441917617130001e-5 4.517845999600000e-5 4.595072271800000e-5
4.673618619340000e-5 4.753507607070001e-5 4.834762185550000e-5 4.917405697650000e-5
5.001461885260001e-5 5.086954896079999e-5 5.173909290599999e-5 5.262350049149998e-5
5.352302579030001e-5 5.443792721870001e-5 5.536846761020000e-5 5.631491429100000e-5
5.727753915699997e-5 5.825661875160000e-5 5.925243434540000e-5 6.026527201700000e-5
6.129542273510001e-5 6.234318244210001e-5 6.340885213890001e-5 6.449273797200000e-5
6.559515132070000e-5 6.671640888699999e-5 6.785683278660000e-5 6.901675064120000e-5
7.019649567270001e-5 7.139640679900000e-5 7.261682873149999e-5 7.385811207360000e-5
7.512061342209998e-5 7.640469546920001e-5 7.771072710679999e-5 7.903908353259999e-5
8.039014635759999e-5 8.176430371599999e-5 8.316195037660000e-5 8.458348785629999e-5
8.602932453540003e-5 8.749987577459999e-5 8.899556403500000e-5 9.051681899869999e-5
9.206407769300000e-5 9.363778461530002e-5 9.523839186119998e-5 9.686635925400001e-5
9.852215447750000e-5 1.002062532090000e-4 1.019191392590000e-4 1.036613047050000e-4
1.054332500380000e-4 1.072354843030000e-4 1.090685252480000e-4 1.109328994690000e-4
1.128291425660000e-4 1.147577992930000e-4 1.167194237140000e-4 1.187145793670000e-4
1.207438394220000e-4 1.228077868450000e-4 1.249070145690000e-4 1.270421256610000e-4
1.292137334970000e-4 1.314224619390000e-4 1.336689455110000e-4 1.359538295840000e-4
1.382777705620000e-4 1.406414360670000e-4 1.430455051360000e-4 1.454906684100000e-4
1.479776283380000e-4 1.505070993750000e-4 1.530798081890000e-4 1.556964938690000e-4
1.583579081400000e-4 1.610648155730000e-4 1.638179938110000e-4 1.666182337890000e-4
1.694663399610000e-4 1.723631305330000e-4 1.753094376970000e-4 1.783061078700000e-4
1.813540019380000e-4 1.844539955010000e-4 1.876069791270000e-4 1.908138586090000e-4
1.940755552190000e-4 1.973930059810000e-4 2.007671639340000e-4 2.041989984080000e-4
2.076894953030000e-4 2.112396573710000e-4 2.148505045050000e-4 2.185230740310000e-4
2.222584210080000e-4 2.260576185280000e-4 2.299217580280000e-4 2.338519495990000e-4
2.378493223110000e-4 2.419150245300000e-4 2.460502242540000e-4 2.502561094470000e-4
2.545338883770000e-4 2.588847899680000e-4 2.633100641490000e-4 2.678109822170000e-4
2.723888371970000e-4 2.770449442190000e-4 2.817806408930000e-4 2.865972876920000e-4
2.914962683460000e-4 2.964789902380000e-4 3.015468848059999e-4 3.067014079580000e-4
3.119440404910001e-4 3.172762885100000e-4 3.226996838670000e-4 3.282157845980000e-4
3.338261753740000e-4 3.395324679490000e-4 3.453363016330000e-4 3.512393437530000e-4
3.572432901400000e-4 3.633498656120000e-4 3.695608244680000e-4 3.758779509980000e-4
3.823030599900000e-4 3.888379972540000e-4 3.954846401490000e-4 4.022448981290000e-4
4.091207132840001e-4 4.161140609030000e-4 4.232269500399999e-4 4.304614240890000e-4
4.378195613760000e-4 4.453034757510000e-4 4.529153171980000e-4 4.606572724499999e-4
4.685315656229999e-4 4.765404588490000e-4 4.846862529260000e-4 4.929712879850000e-4
5.013979441560000e-4 5.099686422540000e-4 5.186858444740000e-4 5.275520551000001e-4
5.365698212229999e-4 5.457417334730000e-4 5.550704267620000e-4 5.645585810440000e-4
5.742089220810000e-4 5.840242222300000e-4 5.940073012370000e-4 6.041610270470001e-4
6.144883166290000e-4 6.249921368140000e-4 6.356755051450000e-4 6.465414907480000e-4
6.575932152100000e-4 6.688338534780001e-4 6.802666347700002e-4 6.918948435020001e-4
7.037218202340001e-4 7.157509626270000e-4 7.279857264220001e-4 7.404296264279999e-4
7.530862375380001e-4 7.659591957510001e-4 7.790521992200000e-4 7.923690093099999e-4
8.059134516829999e-4 8.196894173960001e-4 8.337008640160001e-4 8.479518167620000e-4
8.624463696570000e-4 8.771886867040001e-4 8.921830030870000e-4 9.074336263819999e-4
9.229449377990001e-4 9.387213934360000e-4 9.547675255640000e-4 9.710879439269998e-4
9.876873370649999e-4 1.004570473660000e-3 1.021742203920000e-3 1.039207460940000e-3
1.056971262150000e-3 1.075038710750000e-3 1.093414997170000e-3 1.112105400570000e-3
1.131115290320000e-3 1.150450127610000e-3 1.170115466950000e-3 1.190116957830000e-3
1.210460346280000e-3 1.231151476570000e-3 1.252196292850000e-3 1.273600840890000e-3
1.295371269810000e-3 1.317513833830000e-3 1.340034894080000e-3 1.362940920430000e-3
1.386238493320000e-3 1.409934305710000e-3 1.434035164940000e-3 1.458547994730000e-3
1.483479837130000e-3 1.508837854580000e-3 1.534629331950000e-3 1.560861678630000e-3
1.587542430670000e-3 1.614679252930000e-3 1.642279941290000e-3 1.670352424890000e-3
1.698904768430000e-3 1.727945174430000e-3 1.757481985650000e-3 1.787523687420000e-3
1.818078910170000e-3 1.849156431800000e-3 1.880765180300000e-3 1.912914236230000e-3
1.945612835410000e-3 1.978870371510000e-3 2.012696398770000e-3 2.047100634760000e-3
2.082092963150000e-3 2.117683436560000e-3 2.153882279440000e-3 2.190699891020000e-3
2.228146848290000e-3 2.266233909030000e-3 2.304972014910000e-3 2.344372294660000e-3
2.384446067200000e-3 2.425204844950000e-3 2.466660337130000e-3 2.508824453090000e-3
2.551709305760000e-3 2.595327215140000e-3 2.639690711810000e-3 2.684812540540000e-3
2.730705663960000e-3 2.777383266280000e-3 2.824858757060000e-3 2.873145775100000e-3
2.922258192330000e-3 2.972210117780000e-3 3.023015901690000e-3 3.074690139570000e-3
3.127247676420000e-3 3.180703611020000e-3 3.235073300220001e-3 3.290372363370000e-3
3.346616686839999e-3 3.403822428519999e-3 3.462006022510000e-3 3.521184183840000e-3
3.581373913250000e-3 3.642592502090000e-3 3.704857537260000e-3 3.768186906310000e-3
3.832598802540000e-3 3.898111730240000e-3 3.964744510009999e-3 4.032516284160001e-3
4.101446522200000e-3 4.171555026460000e-3 4.242861937760001e-3 4.315387741190001e-3
4.389153272020000e-3 4.464179721640000e-3 4.540488643710000e-3 4.618101960310001e-3
4.697041968230001e-3 4.777331345420000e-3 4.858993157470000e-3 4.942050864220001e-3
5.026528326550000e-3 5.112449813200000e-3 5.199840007750000e-3 5.288724015720000e-3
5.379127371750000e-3 5.471076046989999e-3 5.564596456499999e-3 5.659715466900000e-3
5.756460404030000e-3 5.854859060840000e-3 5.954939705369999e-3 6.056731088839999e-3
6.160262453940000e-3 6.265563543249999e-3 6.372664607709999e-3 6.481596415410000e-3
6.592390260320000e-3 6.705077971390000e-3 6.819691921619999e-3 6.936265037360000e-3
7.054830807829999e-3 7.175423294670001e-3 7.298077141780000e-3 7.422827585220000e-3
7.549710463390000e-3 7.678762227289999e-3 7.810019950980001e-3 7.943521342270000e-3
8.079304753530000e-3 8.217409192700000e-3 8.357874334519998e-3 8.500740531910001e-3
8.646048827550000e-3 8.793840965719999e-3 8.944159404219999e-3 9.097047326649999e-3
9.252548654729999e-3 9.410708061009998e-3 9.571570981599999e-3 9.735183629310001e-3
9.901593006900001e-3 1.007084692060000e-2 1.024299399370000e-2 1.041808368070000e-2
1.059616628160000e-2 1.077729295600000e-2 1.096151573820000e-2 1.114888755170000e-2
1.133946222490000e-2 1.153329450610000e-2 1.173044007960000e-2 1.193095558160000e-2
1.213489861630000e-2 1.234232777250000e-2 1.255330264070000e-2 1.276788382980000e-2
1.298613298480000e-2 1.320811280450000e-2 1.343388705950000e-2 1.366352061030000e-2
1.389707942610000e-2 1.413463060400000e-2 1.437624238770000e-2 1.462198418760000e-2
1.487192660060000e-2 1.512614143040000e-2 1.538470170790000e-2 1.564768171250000e-2
1.591515699330000e-2 1.618720439070000e-2 1.646390205860000e-2 1.674532948710000e-2
1.703156752470000e-2 1.732269840200000e-2 1.761880575540000e-2 1.791997465070000e-2
1.822629160800000e-2 1.853784462620000e-2 1.885472320840000e-2 1.917701838780000e-2
1.950482275340000e-2 1.983823047720000e-2 2.017733734070000e-2 2.052224076280000e-2
2.087303982750000e-2 2.122983531260000e-2 2.159272971870000e-2 2.196182729810000e-2
2.233723408550000e-2 2.271905792810000e-2 2.310740851630000e-2 2.350239741590000e-2
2.390413809950000e-2 2.431274597930000e-2 2.472833844070000e-2 2.515103487510000e-2
2.558095671520000e-2 2.601822746910000e-2 2.646297275630000e-2 2.691532034350000e-2
2.737540018130000e-2 2.784334444200000e-2 2.831928755660000e-2 2.880336625460000e-2
2.929571960240000e-2 2.979648904350000e-2 3.030581843930000e-2 3.082385411030000e-2
3.135074487820000e-2 3.188664210830000e-2 3.243169975370000e-2 3.298607439890000e-2
3.354992530490000e-2 3.412341445529999e-2 3.470670660230000e-2 3.529996931450000e-2
3.590337302480000e-2 3.651709107949999e-2 3.714129978770000e-2 3.777617847269999e-2
3.842190952270000e-2 3.907867844390000e-2 3.974667391320000e-2 4.042608783270000e-2
4.111711538500000e-2 4.181995508889999e-2 4.253480885670000e-2 4.326188205190000e-2
4.400138354870000e-2 4.475352579150000e-2 4.551852485630000e-2 4.629660051250000e-2
4.708797628610000e-2 4.789287952410000e-2 4.871154145960000e-2 4.954419727830000e-2
5.039108618629999e-2 5.125245147810000e-2 5.212854060750001e-2 5.301960525789999e-2
5.392590141490000e-2 5.484768943990001e-2 5.578523414470000e-2 5.673880486780001e-2
5.770867555150000e-2 5.869512482110000e-2 5.969843606420000e-2 6.071889751270000e-2
6.175680232560000e-2 6.281244867269999e-2 6.388613982089999e-2 6.497818422080000e-2
6.608889559560000e-2 6.721859303119999e-2 6.836760106790001e-2 6.953624979340001e-2
7.072487493790001e-2 7.193381797039999e-2 7.316342619679999e-2 7.441405285969999e-2
7.568605724010000e-2 7.697980476010001e-2 7.829566708850000e-2 7.963402224679999e-2
8.099525471880000e-2 8.237975556020000e-2 8.378792251120000e-2 8.522016011090001e-2
8.667687981360000e-2 8.815850010659998e-2 8.966544663070000e-2 9.119815230260000e-2
9.275705743880000e-2 9.434260988270001e-2 9.595526513280001e-2 9.759548647379999e-2
9.926374510950000e-2 1.009605202980000e-1 1.026862994910000e-1 1.044415784700000e-1
1.062268614940000e-1 1.080426614400000e-1 1.098894999510000e-1 1.117679075900000e-1
1.136784239850000e-1 1.156215979920000e-1 1.175979878470000e-1 1.196081613280000e-1
1.216526959190000e-1 1.237321789750000e-1 1.258472078920000e-1 1.279983902770000e-1
1.301863441230000e-1 1.324116979860000e-1 1.346750911670000e-1 1.369771738960000e-1
1.393186075170000e-1 1.417000646780000e-1 1.441222295250000e-1 1.465857978990000e-1
1.490914775370000e-1 1.516399882720000e-1 1.542320622410000e-1 1.568684440960000e-1
1.595498912200000e-1 1.622771739410000e-1 1.650510757530000e-1 1.678723935450000e-1
1.707419378280000e-1 1.736605329660000e-1 1.766290174140000e-1 1.796482439600000e-1
1.827190799710000e-1 1.858424076380000e-1 1.890191242330000e-1 1.922501423640000e-1
1.955363902410000e-1 1.988788119380000e-1 2.022783676710000e-1 2.057360340640000e-1
2.092528044380000e-1 2.128296890940000e-1 2.164677156010000e-1 2.201679290940000e-1
2.239313925720000e-1 2.277591872060000e-1 2.316524126480000e-1 2.356121873450000e-1
2.396396488640000e-1 2.437359542170000e-1 2.479022801930000e-1 2.521398236970000e-1
2.564498020940000e-1 2.608334535560000e-1 2.652920374210000e-1 2.698268345560000e-1
2.744391477190000e-1 2.791303019380000e-1 2.839016448920000e-1 2.887545472940000e-1
2.936904032900000e-1 2.987106308560000e-1 3.038166722060000e-1 3.090099942070000e-1
3.142920887990000e-1 3.196644734270000e-1 3.251286914720000e-1 3.306863126990000e-1
3.363389337040000e-1 3.420881783760000e-1 3.479356983630000e-1 3.538831735430000e-1
3.599323125100000e-1 3.660848530660000e-1 3.723425627160000e-1 3.787072391800000e-1
3.851807109040000e-1 3.917648375940000e-1 3.984615107400000e-1 4.052726541680000e-1
4.122002245870000e-1 4.192462121540000e-1 4.264126410450000e-1 4.337015700370000e-1
4.411150930970000e-1 4.486553399870000e-1 4.563244768750000e-1 4.641247069540000e-1