
     Program PWSCF v.6.4.1 starts on  3May2021 at 16:56:39 

     This program is part of the open-source Quantum ESPRESSO suite
     for quantum simulation of materials; please cite
         "P. Giannozzi et al., J. Phys.:Condens. Matter 21 395502 (2009);
         "P. Giannozzi et al., J. Phys.:Condens. Matter 29 465901 (2017);
          URL http://www.quantum-espresso.org", 
     in publications or presentations arising from this work. More details at
     http://www.quantum-espresso.org/quote

     Serial version
     Waiting for input...
     Reading input from standard input

     Current dimensions of program PWSCF are:
     Max number of different atomic species (ntypx) = 10
     Max number of k-points (npk) =  40000
     Max angular momentum in pseudopotentials (lmaxx) =  3

     Atomic positions and unit cell read from directory:
     ./tmp/Grafene.save/


     G-vector sticks info
     --------------------
     sticks:   dense  smooth     PW     G-vecs:    dense   smooth      PW
     Sum         241     241     85                26869    26869    5995



     bravais-lattice index     =            4
     lattice parameter (alat)  =       4.6500  a.u.
     unit-cell volume          =     783.6678 (a.u.)^3
     number of atoms/cell      =            2
     number of atomic types    =            1
     number of electrons       =         8.00
     number of Kohn-Sham states=           20
     kinetic-energy cutoff     =      40.0000  Ry
     charge density cutoff     =     160.0000  Ry
     Exchange-correlation      =  SLA  PZ   NOGX NOGC ( 1  1  0  0 0 0)

     celldm(1)=   4.650000  celldm(2)=   0.000000  celldm(3)=   9.000000
     celldm(4)=   0.000000  celldm(5)=   0.000000  celldm(6)=   0.000000

     crystal axes: (cart. coord. in units of alat)
               a(1) = (   1.000000   0.000000   0.000000 )  
               a(2) = (  -0.500000   0.866025   0.000000 )  
               a(3) = (   0.000000   0.000000   9.000000 )  

     reciprocal axes: (cart. coord. in units 2 pi/alat)
               b(1) = (  1.000000  0.577350 -0.000000 )  
               b(2) = (  0.000000  1.154701  0.000000 )  
               b(3) = (  0.000000 -0.000000  0.111111 )  


     PseudoPot. # 1 for C  read from file:
     ../../pseudo/C.pz-vbc.UPF
     MD5 check sum: ab53dd623bfeb79c5a7b057bc96eae20
     Pseudo is Norm-conserving, Zval =  4.0
     Generated by new atomic code, or converted to UPF format
     Using radial grid of  269 points,  1 beta functions with: 
                l(1) =   0

     atomic species   valence    mass     pseudopotential
        C              4.00    12.01070     C ( 1.00)

     24 Sym. Ops., with inversion, found


                                    s                        frac. trans.

      isym =  1     identity                                     

 cryst.   s( 1) = (     1          0          0      )
                  (     0          1          0      )
                  (     0          0          1      )

 cart.    s( 1) = (  1.0000000  0.0000000  0.0000000 )
                  (  0.0000000  1.0000000  0.0000000 )
                  (  0.0000000  0.0000000  1.0000000 )


      isym =  2     180 deg rotation - cart. axis [0,0,1]        

 cryst.   s( 2) = (    -1          0          0      )
                  (     0         -1          0      )
                  (     0          0          1      )

 cart.    s( 2) = ( -1.0000000  0.0000000  0.0000000 )
                  (  0.0000000 -1.0000000  0.0000000 )
                  (  0.0000000  0.0000000  1.0000000 )


      isym =  3     180 deg rotation - cart. axis [0,1,0]        

 cryst.   s( 3) = (    -1          0          0      )
                  (     1          1          0      )
                  (     0          0         -1      )

 cart.    s( 3) = ( -1.0000000  0.0000000  0.0000000 )
                  (  0.0000000  1.0000000  0.0000000 )
                  (  0.0000000  0.0000000 -1.0000000 )


      isym =  4     180 deg rotation - cart. axis [1,0,0]        

 cryst.   s( 4) = (     1          0          0      )
                  (    -1         -1          0      )
                  (     0          0         -1      )

 cart.    s( 4) = (  1.0000000  0.0000000  0.0000000 )
                  (  0.0000000 -1.0000000  0.0000000 )
                  (  0.0000000  0.0000000 -1.0000000 )


      isym =  5      60 deg rotation - cryst. axis [0,0,1]       

 cryst.   s( 5) = (     1          1          0      )
                  (    -1          0          0      )
                  (     0          0          1      )

 cart.    s( 5) = (  0.5000000 -0.8660254  0.0000000 )
                  (  0.8660254  0.5000000  0.0000000 )
                  (  0.0000000  0.0000000  1.0000000 )


      isym =  6      60 deg rotation - cryst. axis [0,0,-1]      

 cryst.   s( 6) = (     0         -1          0      )
                  (     1          1          0      )
                  (     0          0          1      )

 cart.    s( 6) = (  0.5000000  0.8660254  0.0000000 )
                  ( -0.8660254  0.5000000  0.0000000 )
                  (  0.0000000  0.0000000  1.0000000 )


      isym =  7     120 deg rotation - cryst. axis [0,0,1]       

 cryst.   s( 7) = (     0          1          0      )
                  (    -1         -1          0      )
                  (     0          0          1      )

 cart.    s( 7) = ( -0.5000000 -0.8660254  0.0000000 )
                  (  0.8660254 -0.5000000  0.0000000 )
                  (  0.0000000  0.0000000  1.0000000 )


      isym =  8     120 deg rotation - cryst. axis [0,0,-1]      

 cryst.   s( 8) = (    -1         -1          0      )
                  (     1          0          0      )
                  (     0          0          1      )

 cart.    s( 8) = ( -0.5000000  0.8660254  0.0000000 )
                  ( -0.8660254 -0.5000000  0.0000000 )
                  (  0.0000000  0.0000000  1.0000000 )


      isym =  9     180 deg rotation - cryst. axis [1,-1,0]      

 cryst.   s( 9) = (     0         -1          0      )
                  (    -1          0          0      )
                  (     0          0         -1      )

 cart.    s( 9) = (  0.5000000 -0.8660254  0.0000000 )
                  ( -0.8660254 -0.5000000  0.0000000 )
                  (  0.0000000  0.0000000 -1.0000000 )


      isym = 10     180 deg rotation - cryst. axis [2,1,0]       

 cryst.   s(10) = (     1          1          0      )
                  (     0         -1          0      )
                  (     0          0         -1      )

 cart.    s(10) = (  0.5000000  0.8660254  0.0000000 )
                  (  0.8660254 -0.5000000  0.0000000 )
                  (  0.0000000  0.0000000 -1.0000000 )


      isym = 11     180 deg rotation - cryst. axis [0,1,0]       

 cryst.   s(11) = (    -1         -1          0      )
                  (     0          1          0      )
                  (     0          0         -1      )

 cart.    s(11) = ( -0.5000000 -0.8660254  0.0000000 )
                  ( -0.8660254  0.5000000  0.0000000 )
                  (  0.0000000  0.0000000 -1.0000000 )


      isym = 12     180 deg rotation - cryst. axis [1,1,0]       

 cryst.   s(12) = (     0          1          0      )
                  (     1          0          0      )
                  (     0          0         -1      )

 cart.    s(12) = ( -0.5000000  0.8660254  0.0000000 )
                  (  0.8660254  0.5000000  0.0000000 )
                  (  0.0000000  0.0000000 -1.0000000 )


      isym = 13     inversion                                    

 cryst.   s(13) = (    -1          0          0      )
                  (     0         -1          0      )
                  (     0          0         -1      )

 cart.    s(13) = ( -1.0000000  0.0000000  0.0000000 )
                  (  0.0000000 -1.0000000  0.0000000 )
                  (  0.0000000  0.0000000 -1.0000000 )


      isym = 14     inv. 180 deg rotation - cart. axis [0,0,1]   

 cryst.   s(14) = (     1          0          0      )
                  (     0          1          0      )
                  (     0          0         -1      )

 cart.    s(14) = (  1.0000000  0.0000000  0.0000000 )
                  (  0.0000000  1.0000000  0.0000000 )
                  (  0.0000000  0.0000000 -1.0000000 )


      isym = 15     inv. 180 deg rotation - cart. axis [0,1,0]   

 cryst.   s(15) = (     1          0          0      )
                  (    -1         -1          0      )
                  (     0          0          1      )

 cart.    s(15) = (  1.0000000  0.0000000  0.0000000 )
                  (  0.0000000 -1.0000000  0.0000000 )
                  (  0.0000000  0.0000000  1.0000000 )


      isym = 16     inv. 180 deg rotation - cart. axis [1,0,0]   

 cryst.   s(16) = (    -1          0          0      )
                  (     1          1          0      )
                  (     0          0          1      )

 cart.    s(16) = ( -1.0000000  0.0000000  0.0000000 )
                  (  0.0000000  1.0000000  0.0000000 )
                  (  0.0000000  0.0000000  1.0000000 )


      isym = 17     inv.  60 deg rotation - cryst. axis [0,0,1]  

 cryst.   s(17) = (    -1         -1          0      )
                  (     1          0          0      )
                  (     0          0         -1      )

 cart.    s(17) = ( -0.5000000  0.8660254  0.0000000 )
                  ( -0.8660254 -0.5000000  0.0000000 )
                  (  0.0000000  0.0000000 -1.0000000 )


      isym = 18     inv.  60 deg rotation - cryst. axis [0,0,-1] 

 cryst.   s(18) = (     0          1          0      )
                  (    -1         -1          0      )
                  (     0          0         -1      )

 cart.    s(18) = ( -0.5000000 -0.8660254  0.0000000 )
                  (  0.8660254 -0.5000000  0.0000000 )
                  (  0.0000000  0.0000000 -1.0000000 )


      isym = 19     inv. 120 deg rotation - cryst. axis [0,0,1]  

 cryst.   s(19) = (     0         -1          0      )
                  (     1          1          0      )
                  (     0          0         -1      )

 cart.    s(19) = (  0.5000000  0.8660254  0.0000000 )
                  ( -0.8660254  0.5000000  0.0000000 )
                  (  0.0000000  0.0000000 -1.0000000 )


      isym = 20     inv. 120 deg rotation - cryst. axis [0,0,-1] 

 cryst.   s(20) = (     1          1          0      )
                  (    -1          0          0      )
                  (     0          0         -1      )

 cart.    s(20) = (  0.5000000 -0.8660254  0.0000000 )
                  (  0.8660254  0.5000000  0.0000000 )
                  (  0.0000000  0.0000000 -1.0000000 )


      isym = 21     inv. 180 deg rotation - cryst. axis [1,-1,0] 

 cryst.   s(21) = (     0          1          0      )
                  (     1          0          0      )
                  (     0          0          1      )

 cart.    s(21) = ( -0.5000000  0.8660254  0.0000000 )
                  (  0.8660254  0.5000000  0.0000000 )
                  (  0.0000000  0.0000000  1.0000000 )


      isym = 22     inv. 180 deg rotation - cryst. axis [2,1,0]  

 cryst.   s(22) = (    -1         -1          0      )
                  (     0          1          0      )
                  (     0          0          1      )

 cart.    s(22) = ( -0.5000000 -0.8660254  0.0000000 )
                  ( -0.8660254  0.5000000  0.0000000 )
                  (  0.0000000  0.0000000  1.0000000 )


      isym = 23     inv. 180 deg rotation - cryst. axis [0,1,0]  

 cryst.   s(23) = (     1          1          0      )
                  (     0         -1          0      )
                  (     0          0          1      )

 cart.    s(23) = (  0.5000000  0.8660254  0.0000000 )
                  (  0.8660254 -0.5000000  0.0000000 )
                  (  0.0000000  0.0000000  1.0000000 )


      isym = 24     inv. 180 deg rotation - cryst. axis [1,1,0]  

 cryst.   s(24) = (     0         -1          0      )
                  (    -1          0          0      )
                  (     0          0          1      )

 cart.    s(24) = (  0.5000000 -0.8660254  0.0000000 )
                  ( -0.8660254 -0.5000000  0.0000000 )
                  (  0.0000000  0.0000000  1.0000000 )


     point group D_6h(6/mmm)
     there are 12 classes
     the character table:

       E     2C6   2C3   C2    3C2'  3C2'' i     2S3   2S6   s_h   3s_d  3s_v 
A_1g   1.00  1.00  1.00  1.00  1.00  1.00  1.00  1.00  1.00  1.00  1.00  1.00
A_2g   1.00  1.00  1.00  1.00 -1.00 -1.00  1.00  1.00  1.00  1.00 -1.00 -1.00
B_1g   1.00 -1.00  1.00 -1.00  1.00 -1.00  1.00 -1.00  1.00 -1.00  1.00 -1.00
B_2g   1.00 -1.00  1.00 -1.00 -1.00  1.00  1.00 -1.00  1.00 -1.00 -1.00  1.00
E_1g   2.00  1.00 -1.00 -2.00  0.00  0.00  2.00  1.00 -1.00 -2.00  0.00  0.00
E_2g   2.00 -1.00 -1.00  2.00  0.00  0.00  2.00 -1.00 -1.00  2.00  0.00  0.00
A_1u   1.00  1.00  1.00  1.00  1.00  1.00 -1.00 -1.00 -1.00 -1.00 -1.00 -1.00
A_2u   1.00  1.00  1.00  1.00 -1.00 -1.00 -1.00 -1.00 -1.00 -1.00  1.00  1.00
B_1u   1.00 -1.00  1.00 -1.00  1.00 -1.00 -1.00  1.00 -1.00  1.00 -1.00  1.00
B_2u   1.00 -1.00  1.00 -1.00 -1.00  1.00 -1.00  1.00 -1.00  1.00  1.00 -1.00
E_1u   2.00  1.00 -1.00 -2.00  0.00  0.00 -2.00 -1.00  1.00  2.00  0.00  0.00
E_2u   2.00 -1.00 -1.00  2.00  0.00  0.00 -2.00  1.00  1.00 -2.00  0.00  0.00

     the symmetry operations in each class and the name of the first element:

     E        1
          identity                                               
     2C6      5    6
           60 deg rotation - cryst. axis [0,0,1]                 
     2C3      7    8
          120 deg rotation - cryst. axis [0,0,1]                 
     C2       2
          180 deg rotation - cart. axis [0,0,1]                  
     3C2'     4   12   11
          180 deg rotation - cart. axis [1,0,0]                  
     3C2''    3    9   10
          180 deg rotation - cart. axis [0,1,0]                  
     i       13
          inversion                                              
     2S3     17   18
          inv.  60 deg rotation - cryst. axis [0,0,1]            
     2S6     19   20
          inv. 120 deg rotation - cryst. axis [0,0,1]            
     s_h     14
          inv. 180 deg rotation - cart. axis [0,0,1]             
     3s_d    16   24   23
          inv. 180 deg rotation - cart. axis [1,0,0]             
     3s_v    15   21   22
          inv. 180 deg rotation - cart. axis [0,1,0]             

   Cartesian axes

     site n.     atom                  positions (alat units)
         1           C   tau(   1) = (   0.0000000   0.5773503   0.0000000  )
         2           C   tau(   2) = (   0.5000000   0.2886751   0.0000000  )

   Crystallographic axes

     site n.     atom                  positions (cryst. coord.)
         1           C   tau(   1) = (  0.3333334  0.6666667  0.0000000  )
         2           C   tau(   2) = (  0.6666666  0.3333333  0.0000000  )

     number of k points=    64  gaussian smearing, width (Ry)=  0.0300
                       cart. coord. in units 2pi/alat
        k(    1) = (   0.0333333   0.0577350  -0.0555556), wk =   0.0177778
        k(    2) = (   0.0333333   0.1347151  -0.0555556), wk =   0.0355556
        k(    3) = (   0.0333333   0.2116951  -0.0555556), wk =   0.0355556
        k(    4) = (   0.0333333   0.2886751  -0.0555556), wk =   0.0355556
        k(    5) = (   0.0333333   0.3656552  -0.0555556), wk =   0.0355556
        k(    6) = (   0.0333333   0.4426352  -0.0555556), wk =   0.0355556
        k(    7) = (   0.0333333   0.5196152  -0.0555556), wk =   0.0355556
        k(    8) = (   0.0333333  -0.5581053  -0.0555556), wk =   0.0355556
        k(    9) = (   0.0333333  -0.4811252  -0.0555556), wk =   0.0355556
        k(   10) = (   0.0333333  -0.4041452  -0.0555556), wk =   0.0355556
        k(   11) = (   0.0333333  -0.3271652  -0.0555556), wk =   0.0355556
        k(   12) = (   0.0333333  -0.2501851  -0.0555556), wk =   0.0355556
        k(   13) = (   0.0333333  -0.1732051  -0.0555556), wk =   0.0355556
        k(   14) = (   0.0333333  -0.0962250  -0.0555556), wk =   0.0355556
        k(   15) = (   0.0333333  -0.0192450  -0.0555556), wk =   0.0177778
        k(   16) = (   0.1000000   0.1732051  -0.0555556), wk =   0.0177778
        k(   17) = (   0.1000000   0.2501851  -0.0555556), wk =   0.0355556
        k(   18) = (   0.1000000   0.3271652  -0.0555556), wk =   0.0355556
        k(   19) = (   0.1000000   0.4041452  -0.0555556), wk =   0.0355556
        k(   20) = (   0.1000000   0.4811252  -0.0555556), wk =   0.0355556
        k(   21) = (   0.1000000   0.5581053  -0.0555556), wk =   0.0355556
        k(   22) = (   0.1000000  -0.5196152  -0.0555556), wk =   0.0355556
        k(   23) = (   0.1000000  -0.4426352  -0.0555556), wk =   0.0355556
        k(   24) = (   0.1000000  -0.3656552  -0.0555556), wk =   0.0355556
        k(   25) = (   0.1000000  -0.2886751  -0.0555556), wk =   0.0355556
        k(   26) = (   0.1000000  -0.2116951  -0.0555556), wk =   0.0355556
        k(   27) = (   0.1000000  -0.1347151  -0.0555556), wk =   0.0355556
        k(   28) = (   0.1000000  -0.0577350  -0.0555556), wk =   0.0177778
        k(   29) = (   0.1666667   0.2886751  -0.0555556), wk =   0.0177778
        k(   30) = (   0.1666667   0.3656552  -0.0555556), wk =   0.0355556
        k(   31) = (   0.1666667   0.4426352  -0.0555556), wk =   0.0355556
        k(   32) = (   0.1666667   0.5196152  -0.0555556), wk =   0.0355556
        k(   33) = (   0.1666667   0.5965953  -0.0555556), wk =   0.0355556
        k(   34) = (   0.1666667  -0.4811252  -0.0555556), wk =   0.0355556
        k(   35) = (   0.1666667  -0.4041452  -0.0555556), wk =   0.0355556
        k(   36) = (   0.1666667  -0.3271652  -0.0555556), wk =   0.0355556
        k(   37) = (   0.1666667  -0.2501851  -0.0555556), wk =   0.0355556
        k(   38) = (   0.1666667  -0.1732051  -0.0555556), wk =   0.0355556
        k(   39) = (   0.1666667  -0.0962250  -0.0555556), wk =   0.0177778
        k(   40) = (   0.2333333   0.4041452  -0.0555556), wk =   0.0177778
        k(   41) = (   0.2333333   0.4811252  -0.0555556), wk =   0.0355556
        k(   42) = (   0.2333333   0.5581053  -0.0555556), wk =   0.0355556
        k(   43) = (   0.2333333   0.6350853  -0.0555556), wk =   0.0355556
        k(   44) = (   0.2333333  -0.4426352  -0.0555556), wk =   0.0355556
        k(   45) = (   0.2333333  -0.3656552  -0.0555556), wk =   0.0355556
        k(   46) = (   0.2333333  -0.2886751  -0.0555556), wk =   0.0355556
        k(   47) = (   0.2333333  -0.2116951  -0.0555556), wk =   0.0355556
        k(   48) = (   0.2333333  -0.1347151  -0.0555556), wk =   0.0177778
        k(   49) = (   0.3000000   0.5196152  -0.0555556), wk =   0.0177778
        k(   50) = (   0.3000000   0.5965953  -0.0555556), wk =   0.0355556
        k(   51) = (   0.3000000   0.6735753  -0.0555556), wk =   0.0355556
        k(   52) = (   0.3000000  -0.4041452  -0.0555556), wk =   0.0355556
        k(   53) = (   0.3000000  -0.3271652  -0.0555556), wk =   0.0355556
        k(   54) = (   0.3000000  -0.2501851  -0.0555556), wk =   0.0355556
        k(   55) = (   0.3000000  -0.1732051  -0.0555556), wk =   0.0177778
        k(   56) = (   0.3666667   0.6350853  -0.0555556), wk =   0.0177778
        k(   57) = (   0.3666667   0.7120653  -0.0555556), wk =   0.0355556
        k(   58) = (   0.3666667  -0.3656552  -0.0555556), wk =   0.0355556
        k(   59) = (   0.3666667  -0.2886751  -0.0555556), wk =   0.0355556
        k(   60) = (   0.3666667  -0.2116951  -0.0555556), wk =   0.0177778
        k(   61) = (   0.4333333   0.7505553  -0.0555556), wk =   0.0177778
        k(   62) = (   0.4333333  -0.3271652  -0.0555556), wk =   0.0355556
        k(   63) = (   0.4333333  -0.2501851  -0.0555556), wk =   0.0177778
        k(   64) = (  -0.5000000  -0.8660254  -0.0555556), wk =   0.0088889

                       cryst. coord.
        k(    1) = (   0.0333333   0.0333333  -0.5000000), wk =   0.0177778
        k(    2) = (   0.0333333   0.1000000  -0.5000000), wk =   0.0355556
        k(    3) = (   0.0333333   0.1666667  -0.5000000), wk =   0.0355556
        k(    4) = (   0.0333333   0.2333333  -0.5000000), wk =   0.0355556
        k(    5) = (   0.0333333   0.3000000  -0.5000000), wk =   0.0355556
        k(    6) = (   0.0333333   0.3666667  -0.5000000), wk =   0.0355556
        k(    7) = (   0.0333333   0.4333333  -0.5000000), wk =   0.0355556
        k(    8) = (   0.0333333  -0.5000000  -0.5000000), wk =   0.0355556
        k(    9) = (   0.0333333  -0.4333333  -0.5000000), wk =   0.0355556
        k(   10) = (   0.0333333  -0.3666667  -0.5000000), wk =   0.0355556
        k(   11) = (   0.0333333  -0.3000000  -0.5000000), wk =   0.0355556
        k(   12) = (   0.0333333  -0.2333333  -0.5000000), wk =   0.0355556
        k(   13) = (   0.0333333  -0.1666667  -0.5000000), wk =   0.0355556
        k(   14) = (   0.0333333  -0.1000000  -0.5000000), wk =   0.0355556
        k(   15) = (   0.0333333  -0.0333333  -0.5000000), wk =   0.0177778
        k(   16) = (   0.1000000   0.1000000  -0.5000000), wk =   0.0177778
        k(   17) = (   0.1000000   0.1666667  -0.5000000), wk =   0.0355556
        k(   18) = (   0.1000000   0.2333333  -0.5000000), wk =   0.0355556
        k(   19) = (   0.1000000   0.3000000  -0.5000000), wk =   0.0355556
        k(   20) = (   0.1000000   0.3666667  -0.5000000), wk =   0.0355556
        k(   21) = (   0.1000000   0.4333333  -0.5000000), wk =   0.0355556
        k(   22) = (   0.1000000  -0.5000000  -0.5000000), wk =   0.0355556
        k(   23) = (   0.1000000  -0.4333333  -0.5000000), wk =   0.0355556
        k(   24) = (   0.1000000  -0.3666667  -0.5000000), wk =   0.0355556
        k(   25) = (   0.1000000  -0.3000000  -0.5000000), wk =   0.0355556
        k(   26) = (   0.1000000  -0.2333333  -0.5000000), wk =   0.0355556
        k(   27) = (   0.1000000  -0.1666667  -0.5000000), wk =   0.0355556
        k(   28) = (   0.1000000  -0.1000000  -0.5000000), wk =   0.0177778
        k(   29) = (   0.1666667   0.1666667  -0.5000000), wk =   0.0177778
        k(   30) = (   0.1666667   0.2333333  -0.5000000), wk =   0.0355556
        k(   31) = (   0.1666667   0.3000000  -0.5000000), wk =   0.0355556
        k(   32) = (   0.1666667   0.3666667  -0.5000000), wk =   0.0355556
        k(   33) = (   0.1666667   0.4333333  -0.5000000), wk =   0.0355556
        k(   34) = (   0.1666667  -0.5000000  -0.5000000), wk =   0.0355556
        k(   35) = (   0.1666667  -0.4333333  -0.5000000), wk =   0.0355556
        k(   36) = (   0.1666667  -0.3666667  -0.5000000), wk =   0.0355556
        k(   37) = (   0.1666667  -0.3000000  -0.5000000), wk =   0.0355556
        k(   38) = (   0.1666667  -0.2333333  -0.5000000), wk =   0.0355556
        k(   39) = (   0.1666667  -0.1666667  -0.5000000), wk =   0.0177778
        k(   40) = (   0.2333333   0.2333333  -0.5000000), wk =   0.0177778
        k(   41) = (   0.2333333   0.3000000  -0.5000000), wk =   0.0355556
        k(   42) = (   0.2333333   0.3666667  -0.5000000), wk =   0.0355556
        k(   43) = (   0.2333333   0.4333333  -0.5000000), wk =   0.0355556
        k(   44) = (   0.2333333  -0.5000000  -0.5000000), wk =   0.0355556
        k(   45) = (   0.2333333  -0.4333333  -0.5000000), wk =   0.0355556
        k(   46) = (   0.2333333  -0.3666667  -0.5000000), wk =   0.0355556
        k(   47) = (   0.2333333  -0.3000000  -0.5000000), wk =   0.0355556
        k(   48) = (   0.2333333  -0.2333333  -0.5000000), wk =   0.0177778
        k(   49) = (   0.3000000   0.3000000  -0.5000000), wk =   0.0177778
        k(   50) = (   0.3000000   0.3666667  -0.5000000), wk =   0.0355556
        k(   51) = (   0.3000000   0.4333333  -0.5000000), wk =   0.0355556
        k(   52) = (   0.3000000  -0.5000000  -0.5000000), wk =   0.0355556
        k(   53) = (   0.3000000  -0.4333333  -0.5000000), wk =   0.0355556
        k(   54) = (   0.3000000  -0.3666667  -0.5000000), wk =   0.0355556
        k(   55) = (   0.3000000  -0.3000000  -0.5000000), wk =   0.0177778
        k(   56) = (   0.3666667   0.3666667  -0.5000000), wk =   0.0177778
        k(   57) = (   0.3666667   0.4333333  -0.5000000), wk =   0.0355556
        k(   58) = (   0.3666667  -0.5000000  -0.5000000), wk =   0.0355556
        k(   59) = (   0.3666667  -0.4333333  -0.5000000), wk =   0.0355556
        k(   60) = (   0.3666667  -0.3666667  -0.5000000), wk =   0.0177778
        k(   61) = (   0.4333333   0.4333333  -0.5000000), wk =   0.0177778
        k(   62) = (   0.4333333  -0.5000000  -0.5000000), wk =   0.0355556
        k(   63) = (   0.4333333  -0.4333333  -0.5000000), wk =   0.0177778
        k(   64) = (  -0.5000000  -0.5000000  -0.5000000), wk =   0.0088889

     Dense  grid:    26869 G-vectors     FFT dimensions: (  20,  20, 180)

     Dynamical RAM for                 wfc:       1.02 MB

     Dynamical RAM for     wfc (w. buffer):       1.02 MB

     Dynamical RAM for           str. fact:       0.41 MB

     Dynamical RAM for           local pot:       0.00 MB

     Dynamical RAM for          nlocal pot:       0.10 MB

     Dynamical RAM for                qrad:       0.01 MB

     Dynamical RAM for          rho,v,vnew:       2.88 MB

     Dynamical RAM for           G-vectors:       1.74 MB

     Dynamical RAM for          h,s,v(r/c):       0.29 MB

     Dynamical RAM for          <psi|beta>:       0.00 MB

     Dynamical RAM for                 psi:       4.09 MB

     Dynamical RAM for                hpsi:       4.09 MB

     Dynamical RAM for      wfcinit/wfcrot:       2.05 MB

     Estimated static dynamical RAM per process >       9.73 MB

     Estimated max dynamical RAM per process >      18.20 MB

     The potential is recalculated from file :
     ./tmp/Grafene.save/charge-density


     negative rho (up, down):  1.167E-03 0.000E+00
     Starting wfcs are    8 randomized atomic wfcs +   12 random wfcs

     Band Structure Calculation
     Davidson diagonalization with overlap

     Computing kpt #:     1
     total cpu time spent up to now is        0.6 secs

     Computing kpt #:     2
     total cpu time spent up to now is        0.9 secs

     Computing kpt #:     3
     total cpu time spent up to now is        1.3 secs

     Computing kpt #:     4
     total cpu time spent up to now is        1.6 secs

     Computing kpt #:     5
     total cpu time spent up to now is        2.1 secs

     Computing kpt #:     6
     total cpu time spent up to now is        2.5 secs

     Computing kpt #:     7
     total cpu time spent up to now is        2.9 secs

     Computing kpt #:     8
     total cpu time spent up to now is        3.3 secs

     Computing kpt #:     9
     total cpu time spent up to now is        3.8 secs

     Computing kpt #:    10
     total cpu time spent up to now is        4.2 secs

     Computing kpt #:    11
     total cpu time spent up to now is        4.9 secs

     Computing kpt #:    12
     total cpu time spent up to now is        5.2 secs

     Computing kpt #:    13
     total cpu time spent up to now is        5.6 secs

     Computing kpt #:    14
     total cpu time spent up to now is        5.9 secs

     Computing kpt #:    15
     total cpu time spent up to now is        6.2 secs

     Computing kpt #:    16
     total cpu time spent up to now is        6.5 secs

     Computing kpt #:    17
     total cpu time spent up to now is        6.8 secs

     Computing kpt #:    18
     total cpu time spent up to now is        7.2 secs

     Computing kpt #:    19
     total cpu time spent up to now is        7.6 secs

     Computing kpt #:    20
     total cpu time spent up to now is        8.1 secs

     Computing kpt #:    21
     total cpu time spent up to now is        8.5 secs

     Computing kpt #:    22
     total cpu time spent up to now is        8.9 secs

     Computing kpt #:    23
     total cpu time spent up to now is        9.3 secs

     Computing kpt #:    24
     total cpu time spent up to now is       10.1 secs

     Computing kpt #:    25
     total cpu time spent up to now is       10.5 secs

     Computing kpt #:    26
     total cpu time spent up to now is       10.8 secs

     Computing kpt #:    27
     total cpu time spent up to now is       11.1 secs

     Computing kpt #:    28
     total cpu time spent up to now is       11.5 secs

     Computing kpt #:    29
     total cpu time spent up to now is       11.8 secs

     Computing kpt #:    30
     total cpu time spent up to now is       12.2 secs

     Computing kpt #:    31
     total cpu time spent up to now is       12.6 secs

     Computing kpt #:    32
     total cpu time spent up to now is       13.1 secs

     Computing kpt #:    33
     total cpu time spent up to now is       13.6 secs

     Computing kpt #:    34
     total cpu time spent up to now is       14.0 secs

     Computing kpt #:    35
     total cpu time spent up to now is       14.6 secs

     Computing kpt #:    36
     total cpu time spent up to now is       15.1 secs

     Computing kpt #:    37
     total cpu time spent up to now is       15.4 secs

     Computing kpt #:    38
     total cpu time spent up to now is       15.8 secs

     Computing kpt #:    39
     total cpu time spent up to now is       16.1 secs

     Computing kpt #:    40
     total cpu time spent up to now is       16.5 secs

     Computing kpt #:    41
     total cpu time spent up to now is       17.0 secs

     Computing kpt #:    42
     total cpu time spent up to now is       17.6 secs

     Computing kpt #:    43
     total cpu time spent up to now is       18.0 secs

     Computing kpt #:    44
     total cpu time spent up to now is       18.5 secs

     Computing kpt #:    45
     total cpu time spent up to now is       18.9 secs

     Computing kpt #:    46
     total cpu time spent up to now is       19.3 secs

     Computing kpt #:    47
     total cpu time spent up to now is       19.9 secs

     Computing kpt #:    48
     total cpu time spent up to now is       20.3 secs

     Computing kpt #:    49
     total cpu time spent up to now is       20.9 secs

     Computing kpt #:    50
     total cpu time spent up to now is       21.5 secs

     Computing kpt #:    51
     total cpu time spent up to now is       21.9 secs

     Computing kpt #:    52
     total cpu time spent up to now is       22.4 secs

     Computing kpt #:    53
     total cpu time spent up to now is       22.8 secs

     Computing kpt #:    54
     total cpu time spent up to now is       23.2 secs

     Computing kpt #:    55
     total cpu time spent up to now is       23.6 secs

     Computing kpt #:    56
     total cpu time spent up to now is       24.1 secs

     Computing kpt #:    57
     total cpu time spent up to now is       24.9 secs

     Computing kpt #:    58
     total cpu time spent up to now is       25.3 secs

     Computing kpt #:    59
     total cpu time spent up to now is       25.7 secs

     Computing kpt #:    60
     total cpu time spent up to now is       26.2 secs

     Computing kpt #:    61
     total cpu time spent up to now is       26.6 secs

     Computing kpt #:    62
     total cpu time spent up to now is       27.0 secs

     Computing kpt #:    63
     total cpu time spent up to now is       27.5 secs

     Computing kpt #:    64
     total cpu time spent up to now is       28.0 secs

     ethr =  1.25E-08,  avg # of iterations = 18.5

     total cpu time spent up to now is       28.0 secs

     End of band structure calculation

          k = 0.0333 0.0577-0.0556 (  3368 PWs)   bands (ev):

   -21.9923 -10.3280  -5.9102  -5.7784   0.6212   1.2495   1.7178   1.8555
     2.9853   3.3771   5.0221   5.6033   5.8712   6.1642   7.7585   8.4949
     9.0706  10.1405  11.1403  12.0173

     occupation numbers 
     1.0000   1.0000   1.0000   1.0000   0.0000   0.0000   0.0000   0.0000
     0.0000   0.0000   0.0000   0.0000   0.0000   0.0000   0.0000   0.0000
     0.0000   0.0000   0.0000   0.0000

          k = 0.0333 0.1347-0.0556 (  3364 PWs)   bands (ev):

   -21.7323 -10.0096  -6.8771  -6.3053   0.9783   1.6159   2.0817   2.2211
     3.3474   3.7402   5.3815   5.8633   6.0306   7.1926   8.1010   8.1531
     8.8578  10.7089  11.4843  12.3772

     occupation numbers 
     1.0000   1.0000   1.0000   1.0000   0.0000   0.0000   0.0000   0.0000
     0.0000   0.0000   0.0000   0.0000   0.0000   0.0000   0.0000   0.0000
     0.0000   0.0000   0.0000   0.0000

          k = 0.0333 0.2117-0.0556 (  3352 PWs)   bands (ev):

   -21.2651  -9.4414  -8.3319  -7.0265   1.6208   2.2747   2.7354   2.8792
     3.9970   4.3931   5.7855   6.0197   6.6370   6.6786   8.7504   8.8466
     9.5069  11.7558  12.0927  13.0219

     occupation numbers 
     1.0000   1.0000   1.0000   1.0000   0.0000   0.0000   0.0000   0.0000
     0.0000   0.0000   0.0000   0.0000   0.0000   0.0000   0.0000   0.0000
     0.0000   0.0000   0.0000   0.0000

          k = 0.0333 0.2887-0.0556 (  3350 PWs)   bands (ev):

   -20.5938 -10.0339  -8.6364  -7.7563   2.5474   3.2225   3.6689   3.8294
     4.7669   5.0381   5.3115   5.5505   6.9665   7.5712   9.6596  10.4378
    10.8881  12.9311  13.0296  13.9474

     occupation numbers 
     1.0000   1.0000   1.0000   1.0000   0.0000   0.0000   0.0000   0.0000
     0.0000   0.0000   0.0000   0.0000   0.0000   0.0000   0.0000   0.0000
     0.0000   0.0000   0.0000   0.0000

          k = 0.0333 0.3657-0.0556 (  3344 PWs)   bands (ev):

   -19.7245 -11.8001  -8.3791  -7.6207   2.8725   3.7538   4.4799   4.9304
     5.0584   5.2415   6.1744   6.5841   8.1729   8.7962  10.8194  11.6535
    12.8082  13.8035  14.0834  15.1427

     occupation numbers 
     1.0000   1.0000   1.0000   1.0000   0.0000   0.0000   0.0000   0.0000
     0.0000   0.0000   0.0000   0.0000   0.0000   0.0000   0.0000   0.0000
     0.0000   0.0000   0.0000   0.0000

          k = 0.0333 0.4426-0.0556 (  3350 PWs)   bands (ev):

   -18.6682 -13.5246  -8.8403  -6.4558   1.0041   4.9520   5.2782   6.0074
     6.4423   6.6106   7.6753   8.1054   9.6399  10.3057  12.0908  12.1535
    13.1454  13.2885  13.9136  14.2054

     occupation numbers 
     1.0000   1.0000   1.0000   1.0000   0.0000   0.0000   0.0000   0.0000
     0.0000   0.0000   0.0000   0.0000   0.0000   0.0000   0.0000   0.0000
     0.0000   0.0000   0.0000   0.0000

          k = 0.0333 0.5196-0.0556 (  3368 PWs)   bands (ev):

   -17.4593 -15.1134  -9.1118  -5.3621  -0.5183   4.8368   7.0046   7.8177
     8.2332   8.4348   9.4322   9.9107  10.0676  10.9048  11.3042  11.5533
    11.7075  12.0906  12.5472  13.1258

     occupation numbers 
     1.0000   1.0000   1.0000   1.0000   0.0000   0.0000   0.0000   0.0000
     0.0000   0.0000   0.0000   0.0000   0.0000   0.0000   0.0000   0.0000
     0.0000   0.0000   0.0000   0.0000

          k = 0.0333-0.5581-0.0556 (  3354 PWs)   bands (ev):

   -16.8784 -15.7647  -9.1645  -5.0349  -0.9312   4.8086   7.9720   8.8151
     9.0016   9.2184   9.4561   9.8712  10.2510  10.4768  10.5470  10.9216
    11.4456  11.9948  12.3021  13.0785

     occupation numbers 
     1.0000   1.0000   1.0000   1.0000   0.0000   0.0000   0.0000   0.0000
     0.0000   0.0000   0.0000   0.0000   0.0000   0.0000   0.0000   0.0000
     0.0000   0.0000   0.0000   0.0000

          k = 0.0333-0.4811-0.0556 (  3366 PWs)   bands (ev):

   -18.0783 -14.3439  -9.0018  -5.8739   0.1673   4.8905   6.0990   6.8787
     7.3043   7.4864   8.5254   8.9740  10.4459  11.1288  11.1768  12.0244
    12.5871  12.9325  13.0819  13.8168

     occupation numbers 
     1.0000   1.0000   1.0000   1.0000   0.0000   0.0000   0.0000   0.0000
     0.0000   0.0000   0.0000   0.0000   0.0000   0.0000   0.0000   0.0000
     0.0000   0.0000   0.0000   0.0000

          k = 0.0333-0.4041-0.0556 (  3342 PWs)   bands (ev):

   -19.2186 -12.6721  -8.6311  -7.0485   1.9210   4.4547   5.1033   5.2068
     5.6498   5.8089   6.8904   7.3084   8.8764   9.5158  11.4691  12.3639
    12.8866  13.8465  14.7250  15.0721

     occupation numbers 
     1.0000   1.0000   1.0000   1.0000   0.0000   0.0000   0.0000   0.0000
     0.0000   0.0000   0.0000   0.0000   0.0000   0.0000   0.0000   0.0000
     0.0000   0.0000   0.0000   0.0000

          k = 0.0333-0.3272-0.0556 (  3346 PWs)   bands (ev):

   -20.1831 -10.9168  -8.1524  -8.0868   3.1161   3.7152   3.9144   4.3149
     4.4133   5.3615   5.5316   5.9369   7.5352   8.1478  10.2110  11.0110
    11.9424  13.3977  13.6114  14.5124

     occupation numbers 
     1.0000   1.0000   1.0000   1.0000   0.0000   0.0000   0.0000   0.0000
     0.0000   0.0000   0.0000   0.0000   0.0000   0.0000   0.0000   0.0000
     0.0000   0.0000   0.0000   0.0000

          k = 0.0333-0.2502-0.0556 (  3358 PWs)   bands (ev):

   -20.9553  -9.1661  -9.0688  -7.3997   2.0487   2.7132   3.1694   3.3178
     4.4252   4.8264   5.6675   5.7856   6.4732   7.0673   9.1715   9.8290
     9.9422  12.3875  12.4874  13.4499

     occupation numbers 
     1.0000   1.0000   1.0000   1.0000   0.0000   0.0000   0.0000   0.0000
     0.0000   0.0000   0.0000   0.0000   0.0000   0.0000   0.0000   0.0000
     0.0000   0.0000   0.0000   0.0000

          k = 0.0333-0.1732-0.0556 (  3358 PWs)   bands (ev):

   -21.5244  -9.7565  -7.5601  -6.6527   1.2639   1.9088   2.3724   2.5136
     3.6366   4.0306   5.6678   5.8632   6.2840   7.4579   7.9560   8.3978
     9.1467  11.1827  11.7566  12.6641

     occupation numbers 
     1.0000   1.0000   1.0000   1.0000   0.0000   0.0000   0.0000   0.0000
     0.0000   0.0000   0.0000   0.0000   0.0000   0.0000   0.0000   0.0000
     0.0000   0.0000   0.0000   0.0000

          k = 0.0333-0.0962-0.0556 (  3370 PWs)   bands (ev):

   -21.8883 -10.2009  -6.3145  -6.0030   0.7640   1.3960   1.8633   2.0017
     3.1302   3.5223   5.1659   5.7331   5.9318   6.5853   7.9003   8.6404
     8.6822  10.3585  11.2783  12.1614

     occupation numbers 
     1.0000   1.0000   1.0000   1.0000   0.0000   0.0000   0.0000   0.0000
     0.0000   0.0000   0.0000   0.0000   0.0000   0.0000   0.0000   0.0000
     0.0000   0.0000   0.0000   0.0000

          k = 0.0333-0.0192-0.0556 (  3390 PWs)   bands (ev):

   -22.0451 -10.3930  -5.7115  -5.6604   0.5498   1.1762   1.6449   1.7824
     2.9128   3.3045   4.9500   5.5356   5.8336   5.9367   7.6872   8.4220
     9.2630  10.0351  11.0709  11.9451

     occupation numbers 
     1.0000   1.0000   1.0000   1.0000   0.0000   0.0000   0.0000   0.0000
     0.0000   0.0000   0.0000   0.0000   0.0000   0.0000   0.0000   0.0000
     0.0000   0.0000   0.0000   0.0000

          k = 0.1000 0.1732-0.0556 (  3356 PWs)   bands (ev):

   -21.3685  -9.5661  -7.8855  -7.0719   1.4784   2.1285   2.5905   2.7331
     3.8535   4.2489   5.8833   6.2566   6.5251   7.0014   7.8687   8.6054
     9.3638  11.7371  11.9539  12.8784

     occupation numbers 
     1.0000   1.0000   1.0000   1.0000   0.0000   0.0000   0.0000   0.0000
     0.0000   0.0000   0.0000   0.0000   0.0000   0.0000   0.0000   0.0000
     0.0000   0.0000   0.0000   0.0000

          k = 0.1000 0.2502-0.0556 (  3360 PWs)   bands (ev):

   -20.8001  -9.2716  -8.8820  -7.9488   2.2635   2.9328   3.3875   3.5376
     4.6430   5.0478   5.4556   6.4396   6.6696   7.2897   8.9997   9.3689
    10.1553  12.6481  13.2949  13.6625

     occupation numbers 
     1.0000   1.0000   1.0000   1.0000   0.0000   0.0000   0.0000   0.0000
     0.0000   0.0000   0.0000   0.0000   0.0000   0.0000   0.0000   0.0000
     0.0000   0.0000   0.0000   0.0000

          k = 0.1000 0.3272-0.0556 (  3346 PWs)   bands (ev):

   -20.0305 -10.8945  -8.7029  -7.9702   3.3312   3.6409   4.0445   4.4895
     4.6341   5.7305   6.1057   6.3003   7.7305   8.3647  10.3777  10.6436
    11.2326  13.3598  14.7211  14.8514

     occupation numbers 
     1.0000   1.0000   1.0000   1.0000   0.0000   0.0000   0.0000   0.0000
     0.0000   0.0000   0.0000   0.0000   0.0000   0.0000   0.0000   0.0000
     0.0000   0.0000   0.0000   0.0000

          k = 0.1000 0.4041-0.0556 (  3356 PWs)   bands (ev):

   -19.0702 -12.5901  -9.2831  -6.8697   1.8178   4.6759   5.4176   5.8517
     5.9752   6.0654   7.0838   7.5262   9.0448   9.7302  11.4976  12.0496
    12.5849  13.3196  14.8346  15.2885

     occupation numbers 
     1.0000   1.0000   1.0000   1.0000   0.0000   0.0000   0.0000   0.0000
     0.0000   0.0000   0.0000   0.0000   0.0000   0.0000   0.0000   0.0000
     0.0000   0.0000   0.0000   0.0000

          k = 0.1000 0.4811-0.0556 (  3352 PWs)   bands (ev):

   -17.9325 -14.2263  -9.6567  -5.6886   0.1164   5.8100   6.3117   7.0790
     7.4930   7.7049   8.6881   9.1894  10.4830  11.2085  11.3807  11.8185
    12.7463  13.1228  13.2328  13.9467

     occupation numbers 
     1.0000   1.0000   1.0000   1.0000   0.0000   0.0000   0.0000   0.0000
     0.0000   0.0000   0.0000   0.0000   0.0000   0.0000   0.0000   0.0000
     0.0000   0.0000   0.0000   0.0000

          k = 0.1000 0.5581-0.0556 (  3340 PWs)   bands (ev):

   -16.7426 -15.6285  -9.8207  -4.8391  -0.9684   5.7336   8.1679   8.9301
     9.1846   9.3476   9.6728   9.9649  10.3783  10.6832  10.7612  11.1315
    11.5146  12.1961  12.3602  13.2724

     occupation numbers 
     1.0000   1.0000   1.0000   1.0000   0.0000   0.0000   0.0000   0.0000
     0.0000   0.0000   0.0000   0.0000   0.0000   0.0000   0.0000   0.0000
     0.0000   0.0000   0.0000   0.0000

          k = 0.1000-0.5196-0.0556 (  3348 PWs)   bands (ev):

   -17.3171 -14.9856  -9.7658  -5.1710  -0.5586   5.7617   7.2083   7.9998
     8.4051   8.6525   9.5436  10.1210  10.2237  10.7927  11.4702  11.7720
    11.9162  12.2961  12.5885  13.3026

     occupation numbers 
     1.0000   1.0000   1.0000   1.0000   0.0000   0.0000   0.0000   0.0000
     0.0000   0.0000   0.0000   0.0000   0.0000   0.0000   0.0000   0.0000
     0.0000   0.0000   0.0000   0.0000

          k = 0.1000-0.4426-0.0556 (  3354 PWs)   bands (ev):

   -18.5213 -13.4211  -9.4940  -6.2757   0.9296   5.4433   5.9195   6.2150
     6.6396   6.8299   7.8582   8.3221   9.7721  10.5183  11.8690  11.9712
    13.2228  13.3515  14.0814  14.2660

     occupation numbers 
     1.0000   1.0000   1.0000   1.0000   0.0000   0.0000   0.0000   0.0000
     0.0000   0.0000   0.0000   0.0000   0.0000   0.0000   0.0000   0.0000
     0.0000   0.0000   0.0000   0.0000

          k = 0.1000-0.3657-0.0556 (  3346 PWs)   bands (ev):

   -19.5736 -11.7441  -9.0139  -7.4389   2.7332   3.9696   4.6909   5.1329
     5.2909   6.1341   6.3733   6.8054   8.3589   9.0119  10.9457  11.4648
    11.8779  13.4562  15.1663  15.1926

     occupation numbers 
     1.0000   1.0000   1.0000   1.0000   0.0000   0.0000   0.0000   0.0000
     0.0000   0.0000   0.0000   0.0000   0.0000   0.0000   0.0000   0.0000
     0.0000   0.0000   0.0000   0.0000

          k = 0.1000-0.2887-0.0556 (  3354 PWs)   bands (ev):

   -20.4403 -10.0651  -8.4531  -8.3458   2.7622   3.4422   3.8870   4.0494
     4.5809   5.1624   5.5540   6.3792   7.1663   7.7899   9.7897   9.8461
    10.6581  13.0356  14.1192  14.1651

     occupation numbers 
     1.0000   1.0000   1.0000   1.0000   0.0000   0.0000   0.0000   0.0000
     0.0000   0.0000   0.0000   0.0000   0.0000   0.0000   0.0000   0.0000
     0.0000   0.0000   0.0000   0.0000

          k = 0.1000-0.2117-0.0556 (  3368 PWs)   bands (ev):

   -21.1100  -9.2539  -8.5399  -7.5193   1.8354   2.4943   2.9533   3.0988
     4.2139   4.6123   6.2248   6.2773   6.4091   6.8679   8.3467   8.9541
     9.7239  12.2779  12.4731  13.2352

     occupation numbers 
     1.0000   1.0000   1.0000   1.0000   0.0000   0.0000   0.0000   0.0000
     0.0000   0.0000   0.0000   0.0000   0.0000   0.0000   0.0000   0.0000
     0.0000   0.0000   0.0000   0.0000

          k = 0.1000-0.1347-0.0556 (  3368 PWs)   bands (ev):

   -21.5765  -9.8197  -7.3354  -6.6503   1.1926   1.8356   2.2998   2.4405
     3.5644   3.9582   5.5967   6.0385   6.2441   7.5163   7.6307   8.3249
     9.0750  11.1326  11.6873  12.5923

     occupation numbers 
     1.0000   1.0000   1.0000   1.0000   0.0000   0.0000   0.0000   0.0000
     0.0000   0.0000   0.0000   0.0000   0.0000   0.0000   0.0000   0.0000
     0.0000   0.0000   0.0000   0.0000

          k = 0.1000-0.0577-0.0556 (  3368 PWs)   bands (ev):

   -21.8362 -10.1371  -6.5235  -6.0875   0.8354   1.4693   1.9361   2.0749
     3.2026   3.5949   5.2378   5.7750   5.9186   6.8514   7.9707   8.4965
     8.7128  10.4638  11.3473  12.2334

     occupation numbers 
     1.0000   1.0000   1.0000   1.0000   0.0000   0.0000   0.0000   0.0000
     0.0000   0.0000   0.0000   0.0000   0.0000   0.0000   0.0000   0.0000
     0.0000   0.0000   0.0000   0.0000

          k = 0.1667 0.2887-0.0556 (  3352 PWs)   bands (ev):

   -20.1330 -10.3489  -9.0864  -8.0872   3.1900   3.8815   3.9862   4.3266
     4.4884   5.5750   5.9932   7.3981   7.5769   8.2313   9.1088  10.2199
    11.0861  13.1599  14.5806  15.0593

     occupation numbers 
     1.0000   1.0000   1.0000   1.0000   0.0000   0.0000   0.0000   0.0000
     0.0000   0.0000   0.0000   0.0000   0.0000   0.0000   0.0000   0.0000
     0.0000   0.0000   0.0000   0.0000

          k = 0.1667 0.3657-0.0556 (  3360 PWs)   bands (ev):

   -19.2729 -11.7092  -9.9871  -7.0834   2.3673   4.3959   5.1162   5.5455
     5.7309   6.7743   7.2205   7.6660   8.7232   9.4431  10.2003  11.1071
    12.2960  12.9214  15.3560  15.7593

     occupation numbers 
     1.0000   1.0000   1.0000   1.0000   0.0000   0.0000   0.0000   0.0000
     0.0000   0.0000   0.0000   0.0000   0.0000   0.0000   0.0000   0.0000
     0.0000   0.0000   0.0000   0.0000

          k = 0.1667 0.4426-0.0556 (  3350 PWs)   bands (ev):

   -18.2277 -13.2417 -10.5523  -5.9255   0.7219   5.8736   6.6177   7.0262
     7.2598   7.4987   8.2000   8.7557   9.9173  10.9377  11.3950  11.4368
    13.4419  13.7616  14.3266  14.4819

     occupation numbers 
     1.0000   1.0000   1.0000   1.0000   0.0000   0.0000   0.0000   0.0000
     0.0000   0.0000   0.0000   0.0000   0.0000   0.0000   0.0000   0.0000
     0.0000   0.0000   0.0000   0.0000

          k = 0.1667 0.5196-0.0556 (  3338 PWs)   bands (ev):

   -17.0364 -14.7432 -10.8498  -4.8003  -0.6981   7.3425   7.6190   8.2134
     8.7192   9.0876   9.6158  10.4671  10.5652  10.6948  11.8784  12.2090
    12.3236  12.7013  12.7978  13.5966

     occupation numbers 
     1.0000   1.0000   1.0000   1.0000   0.0000   0.0000   0.0000   0.0000
     0.0000   0.0000   0.0000   0.0000   0.0000   0.0000   0.0000   0.0000
     0.0000   0.0000   0.0000   0.0000

          k = 0.1667 0.5966-0.0556 (  3324 PWs)   bands (ev):

   -16.4727 -15.3688 -10.9047  -4.4504  -1.1081   7.3214   8.5533   8.6992
     9.5355   9.6552  10.1051  10.2002  10.7433  11.1109  11.1868  11.5474
    11.7249  12.5853  12.6212  13.5877

     occupation numbers 
     1.0000   1.0000   1.0000   1.0000   0.0000   0.0000   0.0000   0.0000
     0.0000   0.0000   0.0000   0.0000   0.0000   0.0000   0.0000   0.0000
     0.0000   0.0000   0.0000   0.0000

          k = 0.1667-0.4811-0.0556 (  3352 PWs)   bands (ev):

   -17.6451 -14.0100 -10.7335  -5.3349  -0.0446   6.7077   7.4147   7.4384
     7.8494   8.1421   8.9426   9.6194  10.3295  11.2208  11.7454  11.7992
    13.1470  13.4501  13.6162  14.2613

     occupation numbers 
     1.0000   1.0000   1.0000   1.0000   0.0000   0.0000   0.0000   0.0000
     0.0000   0.0000   0.0000   0.0000   0.0000   0.0000   0.0000   0.0000
     0.0000   0.0000   0.0000   0.0000

          k = 0.1667-0.4041-0.0556 (  3354 PWs)   bands (ev):

   -18.7714 -12.4671 -10.3077  -6.5171   1.5378   5.1017   5.8365   6.2554
     6.4610   7.4651   7.5731   7.9684   9.3449  10.1572  10.9165  11.3322
    13.0016  13.0085  15.2158  15.7206

     occupation numbers 
     1.0000   1.0000   1.0000   1.0000   0.0000   0.0000   0.0000   0.0000
     0.0000   0.0000   0.0000   0.0000   0.0000   0.0000   0.0000   0.0000
     0.0000   0.0000   0.0000   0.0000

          k = 0.1667-0.3272-0.0556 (  3358 PWs)   bands (ev):

   -19.7264 -10.9950  -9.5843  -7.6080   3.1892   3.7583   4.4637   4.9018
     5.0733   6.1422   6.5734   7.6366   8.1252   8.8017   9.5280  10.6910
    11.6567  13.1010  15.0064  15.1406

     occupation numbers 
     1.0000   1.0000   1.0000   1.0000   0.0000   0.0000   0.0000   0.0000
     0.0000   0.0000   0.0000   0.0000   0.0000   0.0000   0.0000   0.0000
     0.0000   0.0000   0.0000   0.0000

          k = 0.1667-0.2502-0.0556 (  3356 PWs)   bands (ev):

   -20.4922  -9.7820  -8.5217  -8.5129   2.6914   3.3710   3.8214   3.9765
     4.7445   5.0786   5.4844   6.9421   7.0898   7.7257   8.9859   9.7701
    10.5854  12.9534  14.0868  14.2437

     occupation numbers 
     1.0000   1.0000   1.0000   1.0000   0.0000   0.0000   0.0000   0.0000
     0.0000   0.0000   0.0000   0.0000   0.0000   0.0000   0.0000   0.0000
     0.0000   0.0000   0.0000   0.0000

          k = 0.1667-0.1732-0.0556 (  3356 PWs)   bands (ev):

   -21.0583  -9.1921  -8.7883  -7.4314   1.9065   2.5673   3.0254   3.1718
     4.2847   4.6839   6.0309   6.0832   6.3331   6.9266   8.9961   9.0274
     9.7958  12.3490  12.4300  13.3070

     occupation numbers 
     1.0000   1.0000   1.0000   1.0000   0.0000   0.0000   0.0000   0.0000
     0.0000   0.0000   0.0000   0.0000   0.0000   0.0000   0.0000   0.0000
     0.0000   0.0000   0.0000   0.0000

          k = 0.1667-0.0962-0.0556 (  3358 PWs)   bands (ev):

   -21.4204  -9.6299  -7.9168  -6.7668   1.4066   2.0552   2.5177   2.6598
     3.7809   4.1754   5.7369   5.8097   6.4216   7.1285   8.4743   8.5402
     9.2904  11.3525  11.8931  12.8074

     occupation numbers 
     1.0000   1.0000   1.0000   1.0000   0.0000   0.0000   0.0000   0.0000
     0.0000   0.0000   0.0000   0.0000   0.0000   0.0000   0.0000   0.0000
     0.0000   0.0000   0.0000   0.0000

          k = 0.2333 0.4041-0.0556 (  3362 PWs)   bands (ev):

   -18.3279 -12.5895 -11.1993  -6.0102   0.9821   5.7335   6.4557   6.8629
     7.1184   8.0232   8.5974   9.1429   9.6916  10.0323  10.8075  11.2150
    13.3594  13.6270  15.6851  16.0254

     occupation numbers 
     1.0000   1.0000   1.0000   1.0000   0.0000   0.0000   0.0000   0.0000
     0.0000   0.0000   0.0000   0.0000   0.0000   0.0000   0.0000   0.0000
     0.0000   0.0000   0.0000   0.0000

          k = 0.2333 0.4811-0.0556 (  3314 PWs)   bands (ev):

   -17.2156 -13.7725 -11.9021  -4.8236  -0.4083   7.3260   7.7313   8.3888
     8.7925   9.2274   9.2946  10.2621  10.4204  10.8961  12.2058  12.4227
    13.7847  13.7919  14.2338  14.5353

     occupation numbers 
     1.0000   1.0000   1.0000   1.0000   0.0000   0.0000   0.0000   0.0000
     0.0000   0.0000   0.0000   0.0000   0.0000   0.0000   0.0000   0.0000
     0.0000   0.0000   0.0000   0.0000

          k = 0.2333 0.5581-0.0556 (  3318 PWs)   bands (ev):

   -16.0704 -15.0220 -12.1519  -3.8796  -1.4494   8.0359   9.0895   9.2142
    10.0098  10.2726  10.7506  10.7736  11.3749  11.7614  11.8142  12.1561
    12.2351  13.1055  13.1787  14.0923

     occupation numbers 
     1.0000   1.0000   1.0000   1.0000   0.0000   0.0000   0.0000   0.0000
     0.0000   0.0000   0.0000   0.0000   0.0000   0.0000   0.0000   0.0000
     0.0000   0.0000   0.0000   0.0000

          k = 0.2333 0.6351-0.0556 (  3320 PWs)   bands (ev):

   -16.6209 -14.4341 -12.0723  -4.2696  -1.0286   7.9816   8.2014   9.2329
     9.2844   9.7397   9.9307  10.7077  11.1228  11.1917  12.5235  12.8638
    12.8849  13.2873  13.3026  13.8272

     occupation numbers 
     1.0000   1.0000   1.0000   1.0000   0.0000   0.0000   0.0000   0.0000
     0.0000   0.0000   0.0000   0.0000   0.0000   0.0000   0.0000   0.0000
     0.0000   0.0000   0.0000   0.0000

          k = 0.2333-0.4426-0.0556 (  3348 PWs)   bands (ev):

   -17.7901 -13.1461 -11.6237  -5.4222   0.2767   6.4999   7.1640   7.5960
     7.9203   8.6457   9.2930   9.4429   9.9879  10.4752  11.5569  11.5869
    13.9944  14.3686  14.7246  15.1053

     occupation numbers 
     1.0000   1.0000   1.0000   1.0000   0.0000   0.0000   0.0000   0.0000
     0.0000   0.0000   0.0000   0.0000   0.0000   0.0000   0.0000   0.0000
     0.0000   0.0000   0.0000   0.0000

          k = 0.2333-0.3657-0.0556 (  3364 PWs)   bands (ev):

   -18.8227 -12.1231 -10.6359  -6.5668   1.6822   5.0313   5.7587   6.1760
     6.3885   7.3826   7.8756   8.4640   9.2510  10.0088  10.1101  11.2001
    12.9277  12.9302  15.8523  15.9940

     occupation numbers 
     1.0000   1.0000   1.0000   1.0000   0.0000   0.0000   0.0000   0.0000
     0.0000   0.0000   0.0000   0.0000   0.0000   0.0000   0.0000   0.0000
     0.0000   0.0000   0.0000   0.0000

          k = 0.2333-0.2887-0.0556 (  3352 PWs)   bands (ev):

   -19.6760 -11.3059  -9.3247  -7.5519   3.0272   3.8288   4.5405   4.9802
     5.1461   6.2203   6.6315   6.9209   8.2042   8.8687  10.4205  10.7787
    11.7291  13.2304  15.0798  15.2106

     occupation numbers 
     1.0000   1.0000   1.0000   1.0000   0.0000   0.0000   0.0000   0.0000
     0.0000   0.0000   0.0000   0.0000   0.0000   0.0000   0.0000   0.0000
     0.0000   0.0000   0.0000   0.0000

          k = 0.2333-0.2117-0.0556 (  3356 PWs)   bands (ev):

   -20.3377 -10.4707  -8.3329  -8.1695   2.9038   3.5812   3.9937   4.1951
     4.3260   5.3132   5.6584   5.8374   7.3159   7.9320   9.9947  10.7673
    10.8671  13.1896  13.9022  14.3011

     occupation numbers 
     1.0000   1.0000   1.0000   1.0000   0.0000   0.0000   0.0000   0.0000
     0.0000   0.0000   0.0000   0.0000   0.0000   0.0000   0.0000   0.0000
     0.0000   0.0000   0.0000   0.0000

          k = 0.2333-0.1347-0.0556 (  3352 PWs)   bands (ev):

   -20.8005  -9.5939  -8.8831  -7.4979   2.2623   2.9318   3.3847   3.5370
     4.6298   5.0373   5.3866   5.4914   6.6849   7.2828   9.3834  10.1524
    10.5650  12.5023  12.6859  13.6635

     occupation numbers 
     1.0000   1.0000   1.0000   1.0000   0.0000   0.0000   0.0000   0.0000
     0.0000   0.0000   0.0000   0.0000   0.0000   0.0000   0.0000   0.0000
     0.0000   0.0000   0.0000   0.0000

          k = 0.3000 0.5196-0.0556 (  3300 PWs)   bands (ev):

   -16.0871 -14.3885 -12.9454  -3.6528  -1.5598   7.6912   8.9684  10.1322
    10.5631  10.5679  10.6827  10.6930  11.8990  12.0195  13.3199  13.4210
    13.4313  13.5112  13.7332  13.7433

     occupation numbers 
     1.0000   1.0000   1.0000   0.9999   0.0001   0.0000   0.0000   0.0000
     0.0000   0.0000   0.0000   0.0000   0.0000   0.0000   0.0000   0.0000
     0.0000   0.0000   0.0000   0.0000

          k = 0.3000 0.5966-0.0556 (  3296 PWs)   bands (ev):

   -15.5506 -14.8061 -13.1691  -3.1523  -2.0565   7.5979   9.7760  10.4023
    10.6322  11.1349  11.6008  11.6082  12.2339  12.5993  12.6277  12.9022
    12.9191  13.3648  13.3825  13.5968

     occupation numbers 
     1.0000   1.0000   1.0000   0.9709   0.0286   0.0000   0.0000   0.0000
     0.0000   0.0000   0.0000   0.0000   0.0000   0.0000   0.0000   0.0000
     0.0000   0.0000   0.0000   0.0000

          k = 0.3000 0.6736-0.0556 (  3320 PWs)   bands (ev):

   -16.6608 -14.0480 -12.5012  -4.2394  -0.9896   7.8067   8.1321   9.2083
     9.6618   9.8543  10.1172  10.7120  11.0706  11.1261  12.9459  13.2203
    13.5739  13.6135  14.0308  14.3030

     occupation numbers 
     1.0000   1.0000   1.0000   1.0000   0.0000   0.0000   0.0000   0.0000
     0.0000   0.0000   0.0000   0.0000   0.0000   0.0000   0.0000   0.0000
     0.0000   0.0000   0.0000   0.0000

          k = 0.3000-0.4041-0.0556 (  3344 PWs)   bands (ev):

   -17.7414 -13.5188 -11.2385  -5.3919   0.1631   6.5699   7.2598   7.6817
     7.9914   8.3828   8.7481   9.4759  10.1064  11.1080  11.6290  11.6612
    13.9120  14.0228  14.1730  14.4541

     occupation numbers 
     1.0000   1.0000   1.0000   1.0000   0.0000   0.0000   0.0000   0.0000
     0.0000   0.0000   0.0000   0.0000   0.0000   0.0000   0.0000   0.0000
     0.0000   0.0000   0.0000   0.0000

          k = 0.3000-0.3272-0.0556 (  3354 PWs)   bands (ev):

   -18.6713 -12.9332  -9.8895  -6.4188   1.2722   5.2414   5.9895   6.4112
     6.5919   6.7062   7.6254   8.1054   9.5227  10.3021  11.5718  11.7020
    13.1416  13.1427  14.6178  14.9108

     occupation numbers 
     1.0000   1.0000   1.0000   1.0000   0.0000   0.0000   0.0000   0.0000
     0.0000   0.0000   0.0000   0.0000   0.0000   0.0000   0.0000   0.0000
     0.0000   0.0000   0.0000   0.0000

          k = 0.3000-0.2502-0.0556 (  3354 PWs)   bands (ev):

   -19.4216 -12.2118  -8.7673  -7.2718   2.3512   4.1795   4.9130   5.3565
     5.4655   5.5633   6.5973   7.0190   8.5842   9.2278  11.1798  12.0741
    12.4393  13.7070  14.7182  15.2399

     occupation numbers 
     1.0000   1.0000   1.0000   1.0000   0.0000   0.0000   0.0000   0.0000
     0.0000   0.0000   0.0000   0.0000   0.0000   0.0000   0.0000   0.0000
     0.0000   0.0000   0.0000   0.0000

          k = 0.3000-0.1732-0.0556 (  3348 PWs)   bands (ev):

   -19.9791 -11.3673  -8.1513  -7.9151   3.3627   3.3993   4.1232   4.5779
     4.7027   5.1773   5.8186   6.2224   7.8217   8.4360  10.4890  11.2975
    12.9224  13.3679  13.6294  14.7933

     occupation numbers 
     1.0000   1.0000   1.0000   1.0000   0.0000   0.0000   0.0000   0.0000
     0.0000   0.0000   0.0000   0.0000   0.0000   0.0000   0.0000   0.0000
     0.0000   0.0000   0.0000   0.0000

          k = 0.3667 0.6351-0.0556 (  3310 PWs)   bands (ev):

   -15.6996 -14.9858 -12.7493  -3.4576  -1.7949   7.7581   9.7717   9.9021
    10.0955  11.1305  11.2533  11.5578  11.6571  11.6845  11.9088  12.8011
    12.9031  13.0388  13.2101  14.2198

     occupation numbers 
     1.0000   1.0000   1.0000   0.9984   0.0025   0.0000   0.0000   0.0000
     0.0000   0.0000   0.0000   0.0000   0.0000   0.0000   0.0000   0.0000
     0.0000   0.0000   0.0000   0.0000

          k = 0.3667 0.7121-0.0556 (  3330 PWs)   bands (ev):

   -16.5489 -14.9204 -11.5039  -4.3367  -1.0811   8.2443   8.2994   8.3645
     9.4357   9.8833  10.0712  10.2104  11.1679  11.3308  11.6379  12.0337
    12.1935  13.0776  13.2905  13.4574

     occupation numbers 
     1.0000   1.0000   1.0000   1.0000   0.0000   0.0000   0.0000   0.0000
     0.0000   0.0000   0.0000   0.0000   0.0000   0.0000   0.0000   0.0000
     0.0000   0.0000   0.0000   0.0000

          k = 0.3667-0.3657-0.0556 (  3340 PWs)   bands (ev):

   -17.5017 -14.5079 -10.2219  -5.2557  -0.2981   6.5138   6.9342   7.6871
     8.0928   8.3605   9.2131   9.8364  10.6125  10.8167  11.7885  12.0100
    12.3326  12.6880  12.9953  13.9389

     occupation numbers 
     1.0000   1.0000   1.0000   1.0000   0.0000   0.0000   0.0000   0.0000
     0.0000   0.0000   0.0000   0.0000   0.0000   0.0000   0.0000   0.0000
     0.0000   0.0000   0.0000   0.0000

          k = 0.3667-0.2887-0.0556 (  3354 PWs)   bands (ev):

   -18.3225 -13.8959  -9.1858  -6.0920   0.5515   5.2794   5.7566   6.5117
     6.9378   7.1214   8.1593   8.6119  10.0830  10.8057  11.6661  12.1171
    13.0539  13.3780  13.6171  13.6466

     occupation numbers 
     1.0000   1.0000   1.0000   1.0000   0.0000   0.0000   0.0000   0.0000
     0.0000   0.0000   0.0000   0.0000   0.0000   0.0000   0.0000   0.0000
     0.0000   0.0000   0.0000   0.0000

          k = 0.3667-0.2117-0.0556 (  3354 PWs)   bands (ev):

   -18.9672 -13.1155  -8.6545  -6.7760   1.4621   4.7591   4.9745   5.5718
     6.0121   6.1728   7.2506   7.6708   9.2309   9.8753  11.7937  12.6209
    12.7280  13.6781  14.5368  14.8430

     occupation numbers 
     1.0000   1.0000   1.0000   1.0000   0.0000   0.0000   0.0000   0.0000
     0.0000   0.0000   0.0000   0.0000   0.0000   0.0000   0.0000   0.0000
     0.0000   0.0000   0.0000   0.0000

          k = 0.4333 0.7506-0.0556 (  3328 PWs)   bands (ev):

   -16.4952 -15.6507 -10.3328  -4.6218  -1.0752   6.4629   8.7738   8.8979
     9.0582   9.8135   9.9897  10.2436  10.3913  10.4019  10.8971  11.4908
    11.8231  11.8486  12.3869  13.5113

     occupation numbers 
     1.0000   1.0000   1.0000   1.0000   0.0000   0.0000   0.0000   0.0000
     0.0000   0.0000   0.0000   0.0000   0.0000   0.0000   0.0000   0.0000
     0.0000   0.0000   0.0000   0.0000

          k = 0.4333-0.3272-0.0556 (  3342 PWs)   bands (ev):

   -17.0990 -15.4146  -9.3984  -5.0909  -0.7790   5.1789   7.5567   8.3764
     8.7824   9.0173   9.5946   9.9131  10.4888  10.4971  10.9017  11.1988
    11.7183  12.2196  12.6207  12.6593

     occupation numbers 
     1.0000   1.0000   1.0000   1.0000   0.0000   0.0000   0.0000   0.0000
     0.0000   0.0000   0.0000   0.0000   0.0000   0.0000   0.0000   0.0000
     0.0000   0.0000   0.0000   0.0000

          k = 0.4333-0.2502-0.0556 (  3358 PWs)   bands (ev):

   -17.7879 -14.7521  -8.9723  -5.6243  -0.1945   4.7382   6.5177   7.3152
     7.7375   7.9243   8.9533   9.4078  10.5874  10.8333  11.5756  11.5938
    12.0038  12.2869  12.9809  13.5936

     occupation numbers 
     1.0000   1.0000   1.0000   1.0000   0.0000   0.0000   0.0000   0.0000
     0.0000   0.0000   0.0000   0.0000   0.0000   0.0000   0.0000   0.0000
     0.0000   0.0000   0.0000   0.0000

          k =-0.5000-0.8660-0.0556 (  3360 PWs)   bands (ev):

   -16.7626 -15.9262  -9.0807  -5.0165  -0.9843   4.6816   8.4034   8.5098
     9.2541   9.3740   9.6711   9.8051   9.9617   9.9695  10.7952  11.0533
    11.4179  11.4307  12.5398  13.0754

     occupation numbers 
     1.0000   1.0000   1.0000   1.0000   0.0000   0.0000   0.0000   0.0000
     0.0000   0.0000   0.0000   0.0000   0.0000   0.0000   0.0000   0.0000
     0.0000   0.0000   0.0000   0.0000

     the Fermi energy is    -2.6054 ev

     Writing output data file Grafene.save/

     init_run     :      0.06s CPU      0.11s WALL (       1 calls)
     electrons    :     30.10s CPU     27.70s WALL (       1 calls)

     Called by init_run:
     wfcinit      :      0.00s CPU      0.00s WALL (       1 calls)
     wfcinit:atom :      0.03s CPU      0.03s WALL (      64 calls)
     wfcinit:wfcr :      1.75s CPU      1.73s WALL (      64 calls)
     potinit      :      0.01s CPU      0.03s WALL (       1 calls)
     hinit0       :      0.03s CPU      0.04s WALL (       1 calls)

     Called by electrons:
     c_bands      :     30.10s CPU     27.69s WALL (       1 calls)
     v_of_rho     :      0.01s CPU      0.01s WALL (       1 calls)
     v_h          :      0.00s CPU      0.00s WALL (       1 calls)
     v_xc         :      0.00s CPU      0.01s WALL (       1 calls)

     Called by c_bands:
     init_us_2    :      0.01s CPU      0.01s WALL (      64 calls)
     cegterg      :     28.21s CPU     25.69s WALL (      87 calls)

     Called by sum_band:

     Called by *egterg:
     h_psi        :     19.87s CPU     20.74s WALL (    1334 calls)
     g_psi        :      0.16s CPU      0.16s WALL (    1183 calls)
     cdiaghg      :      1.39s CPU      1.49s WALL (    1247 calls)
     cegterg:over :      3.76s CPU      2.12s WALL (    1183 calls)
     cegterg:upda :      2.73s CPU      1.56s WALL (    1183 calls)
     cegterg:last :      1.59s CPU      0.89s WALL (     268 calls)

     Called by h_psi:
     h_psi:pot    :     19.79s CPU     20.66s WALL (    1334 calls)
     h_psi:calbec :      0.13s CPU      0.14s WALL (    1334 calls)
     vloc_psi     :     19.46s CPU     20.34s WALL (    1334 calls)
     add_vuspsi   :      0.20s CPU      0.17s WALL (    1334 calls)

     General routines
     calbec       :      0.13s CPU      0.14s WALL (    1334 calls)
     fft          :      0.00s CPU      0.01s WALL (       3 calls)
     fftw         :     17.06s CPU     17.88s WALL (   32762 calls)
     davcio       :      0.00s CPU      0.19s WALL (     128 calls)


     PWSCF        :     30.26s CPU     28.37s WALL


   This run was terminated on:  16:57: 7   3May2021            

=------------------------------------------------------------------------------=
   JOB DONE.
=------------------------------------------------------------------------------=
