<UPF version="2.0.1">
<PP_INFO>
Generated by new atomic code, or converted to UPF format
Author:
Generation date:
Pseudopotential type: NC
Element: H
Functional:  SLA  PZ   NOGX NOGC
Suggested minimum cutoff for wavefunctions:   0. Ry
Suggested minimum cutoff for charge density:   0. Ry
The Pseudo was generated with a Non-Relativistic Calculation
L component and cutoff radius for Local Potential:  0   0.0000
Valence configuration:
nl pn  l   occ       Rcut    Rcut US       E pseu
1S  0  0  1.00      0.000      0.000     0.000000
Generation configuration: not available.
</PP_INFO>
<!--
END OF HUMAN READABLE SECTION
-->
<PP_HEADER generated="Generated by new atomic code, or converted to UPF format" author="" date="" comment="" element="H " pseudo_type="NC" relativistic="no" is_ultrasoft="false" is_paw="false" is_coulomb="false" has_so="false" has_wfc="false" has_gipaw="false" paw_as_gipaw="false" core_correction="false" functional=" SLA  PZ   NOGX NOGC" z_valence="1.000000000000e0" total_psenergy="0.000000000000e0" wfc_cutoff="0.000000000000e0" rho_cutoff="0.000000000000e0" l_max="-1" l_max_rho="0" l_local="0" mesh_size="131" number_of_wfc="1" number_of_proj="0"/>
<PP_MESH dx="6.250000000002e-2" mesh="131" xmin="-4.000000000002e0" rmax="6.186780925040e1" zmesh="1.000000000000e0">
<PP_R>
1.831563888870000e-2 1.949689610860000e-2 2.075433787370000e-2 2.209287766510000e-2
2.351774585600000e-2 2.503451015000000e-2 2.664909733640000e-2 2.836781644970000e-2
3.019738342230000e-2 3.214494732690000e-2 3.421811831169999e-2 3.642499733740000e-2
3.877420783170000e-2 4.127492938580000e-2 4.393693362340001e-2 4.677062238400000e-2
4.978706836790000e-2 5.299805840340000e-2 5.641613950380000e-2 6.005466789530000e-2
6.392786120670001e-2 6.805085402500000e-2 7.243975703430000e-2 7.711171996830001e-2
8.208499862389999e-2 8.737902619540000e-2 9.301448921070000e-2 9.901340836380001e-2
1.053992245620000e-1 1.121968905200000e-1 1.194329682670000e-1 1.271357329320000e-1
1.353352832370000e-1 1.440636591010000e-1 1.533549668450000e-1 1.632455124540000e-1
1.737739434500000e-1 1.849813999070000e-1 1.969116752040000e-1 2.096113871510000e-1
2.231301601480000e-1 2.375208190950000e-1 2.528395958050000e-1 2.691463487290000e-1
2.865047968600000e-1 3.049827687110000e-1 3.246524673580000e-1 3.455907525770000e-1
3.678794411710000e-1 3.916056266770000e-1 4.168620196790000e-1 4.437473100810000e-1
4.723665527410000e-1 5.028315779710000e-1 5.352614285190000e-1 5.697828247309999e-1
6.065306597130000e-1 6.456485264279999e-1 6.872892787910000e-1 7.316156289470000e-1
7.788007830710000e-1 8.290291181800001e-1 8.824969025850001e-1 9.394130628130000e-1
1.000000000000000e0 1.064494458920000e0 1.133148453070000e0 1.206230249420000e0
1.284025416690000e0 1.366837941170000e0 1.454991414620000e0 1.548830298630000e0
1.648721270700000e0 1.755054656960000e0 1.868245957430000e0 1.988737469580000e0
2.117000016610000e0 2.253534787210000e0 2.398875293970000e0 2.553589458060000e0
2.718281828460000e0 2.893595944170000e0 3.080216848920000e0 3.278873767940000e0
3.490342957460000e0 3.715450737940000e0 3.955076722920000e0 4.210157256140000e0
4.481689070340000e0 4.770733181970000e0 5.078419037180000e0 5.405948925140000e0
5.754602676010000e0 6.125742661880000e0 6.520819120330000e0 6.941375821200000e0
7.389056098930000e0 7.865609273940000e0 8.372897488130000e0 8.912902981200000e0
9.487735836360001e0 1.009964222550000e1 1.075101318610000e1 1.144439396430000e1
1.218249396070000e1 1.296819731700000e1 1.380457418610000e1 1.469489272880000e1
1.564263188420000e1 1.665149496360000e1 1.772542412150000e1 1.886861575930000e1
2.008553692320000e1 2.138094275910000e1 2.275989509350000e1 2.422778221260000e1
2.579033991720000e1 2.745367393550000e1 2.922428378120000e1 3.110908815100000e1
3.311545195870000e1 3.525121511460000e1 3.752472315960000e1 3.994485987580000e1
4.252108200010000e1 4.526345617630000e1 4.818269829110001e1 5.129021534660001e1
5.459815003310000e1 5.811942817740000e1 6.186780925040001e1
</PP_R>
<PP_RAB>
1.144727430550000e-3 1.218556006790000e-3 1.297146117110000e-3 1.380804854070000e-3
1.469859116000000e-3 1.564656884370000e-3 1.665568583520000e-3 1.772988528110000e-3
1.887336463890000e-3 2.009059207930000e-3 2.138632394480000e-3 2.276562333590000e-3
2.423387989480000e-3 2.579683086610000e-3 2.746058351460000e-3 2.923163899000000e-3
3.111691772990000e-3 3.312378650210000e-3 3.526008718990000e-3 3.753416743460000e-3
3.995491325420000e-3 4.253178376560001e-3 4.527484814639999e-3 4.819482498020000e-3
5.130312413990000e-3 5.461189137210000e-3 5.813405575670000e-3 6.188338022740000e-3
6.587451535120000e-3 7.012305657520001e-3 7.464560516669999e-3 7.945983308250000e-3
8.458455202290001e-3 9.003978693840001e-3 9.584685427810001e-3 1.020284452840000e-2
1.086087146570000e-2 1.156133749420000e-2 1.230697970030000e-2 1.310071169690000e-2
1.394563500930000e-2 1.484505119350000e-2 1.580247473780000e-2 1.682164679560000e-2
1.790654980380000e-2 1.906142304440000e-2 2.029077920990000e-2 2.159942203610000e-2
2.299246507319999e-2 2.447535166730000e-2 2.605387622989999e-2 2.773420688010000e-2
2.952290954630000e-2 3.142697362320001e-2 3.345383928240000e-2 3.561142654570000e-2
3.790816623200000e-2 4.035303290170001e-2 4.295557992440000e-2 4.572597680920000e-2
4.867504894200000e-2 5.181431988630001e-2 5.515605641150000e-2 5.871331642580000e-2
6.250000000000000e-2 6.653090368240000e-2 7.082177831670000e-2 7.538939058880000e-2
8.025158854300001e-2 8.542737132340001e-2 9.093696341360001e-2 9.680189366460000e-2
1.030450794190000e-1 1.096909160600000e-1 1.167653723400000e-1 1.242960918490000e-1
1.323125010380000e-1 1.408459242010000e-1 1.499297058730000e-1 1.595993411290000e-1
1.698926142790000e-1 1.808497465110000e-1 1.925135530570000e-1 2.049296104960000e-1
2.181464348410000e-1 2.322156711210000e-1 2.471922951830000e-1 2.631348285090000e-1
2.801055668960000e-1 2.981708238730000e-1 3.174011898240000e-1 3.378718078210000e-1
3.596626672500000e-1 3.828589163680000e-1 4.075511950210000e-1 4.338359888250000e-1
4.618160061830000e-1 4.916005796220000e-1 5.233060930080001e-1 5.570564363250000e-1
5.929834897720000e-1 6.312276390929999e-1 6.719383241300000e-1 7.152746227710000e-1
7.614058725440001e-1 8.105123323110000e-1 8.627858866290000e-1 9.184307955490000e-1
9.776644927620000e-1 1.040718435230000e0 1.107839007590000e0 1.179288484950000e0
1.255346057700000e0 1.336308922450000e0 1.422493443350000e0 1.514236388290000e0
1.611896244820000e0 1.715854620970000e0 1.826517736330000e0 1.944318009440000e0
2.069715747420000e0 2.203200944660000e0 2.345295197480000e0 2.496553742240000e0
2.657567625000000e0 2.828966011020000e0 3.011418643190000e0 3.205638459160000e0
3.412384377070000e0 3.632464261090000e0 3.866738078150000e0
</PP_RAB>
</PP_MESH>
<PP_LOCAL columns="4">
-1.285207344270000e1 -1.284777384610000e1 -1.284290433740000e1 -1.283738976230000e1
-1.283114516590000e1 -1.282407454580000e1 -1.281606945570000e1 -1.280700744340000e1
-1.279675030820000e1 -1.278514216020000e1 -1.277200726390000e1 -1.275714765100000e1
-1.274034048580000e1 -1.272133516920000e1 -1.269985017210000e1 -1.267556959140000e1
-1.264813943250000e1 -1.261716362820000e1 -1.258219982250000e1 -1.254275496190000e1
-1.249828076630000e1 -1.244816917700000e1 -1.239174792760000e1 -1.232827642560000e1
-1.225694220460000e1 -1.217685827500000e1 -1.208706179940000e1 -1.198651462390000e1
-1.187410631790000e1 -1.174866051290000e1 -1.160894547230000e1 -1.145368996240000e1
-1.128160561900000e1 -1.109141707890000e1 -1.088190114710000e1 -1.065193615130000e1
-1.040056232520000e1 -1.012705350930000e1 -9.830999562000001e0 -9.512397580300000e0
-9.171748264850001e0 -8.810151540430001e0 -8.429392937290000e0 -8.032009487730001e0
-7.621321420720000e0 -7.201414408440000e0 -6.777057424910000e0 -6.353544450070000e0
-5.936455239440000e0 -5.531341657800000e0 -5.143361128860000e0 -4.776895530200000e0
-4.435208481860000e0 -4.120201058750000e0 -3.832319942550000e0 -3.570649568160000e0
-3.333182604490000e0 -3.117219726280000e0 -2.919814507420000e0 -2.738167542730000e0
-2.569893507740000e0 -2.413130034250000e0 -2.266509017490000e0 -2.129046468420000e0
-2.000013103230000e0 -1.878828571670000e0 -1.764994169770000e0 -1.658058278470000e0
-1.557601569780000e0 -1.463231258120000e0 -1.374578557590000e0 -1.291297052860000e0
-1.213061319430000e0 -1.139565649460000e0 -1.070522857040000e0 -1.005663155940000e0
-9.447331054819999e-1 -8.874946201620000e-1 -8.337240393569999e-1 -7.832112533540000e-1
-7.357588823430000e-1 -6.911815051540000e-1 -6.493049347170000e-1 -6.099655374220000e-1
-5.730095937200001e-1 -5.382926974580000e-1 -5.056791916090000e-1 -4.750416381910000e-1
-4.462603202970000e-1 -4.192227743020000e-1 -3.938233504080000e-1 -3.699627998150000e-1
-3.475478869010000e-1 -3.264910249080000e-1 -3.067099336900000e-1 -2.881273182030000e-1
-2.706705664730000e-1 -2.542714658640000e-1 -2.388659365330000e-1 -2.243937810410000e-1
-2.107984491240000e-1 -1.980268167280000e-1 -1.860289784210000e-1 -1.747580523910000e-1
-1.641699972480000e-1 -1.542234399370000e-1 -1.448795140690000e-1 -1.361017080500000e-1
-1.278557224130000e-1 -1.201093357910000e-1 -1.128322790080000e-1 -1.059961168070000e-1
-9.957413673569999e-2 -9.354124476790000e-2 -8.787386724680001e-2 -8.254985877159999e-2
-7.754841566340000e-2 -7.284999467470000e-2 -6.843623662330001e-2 -6.428989465379999e-2
-6.039476684460000e-2 -5.673563289940001e-2 -5.329819467270001e-2 -5.006902029990000e-2
-4.703549171200000e-2 -4.418575533010000e-2 -4.150867574739999e-2 -3.899379221720000e-2
-3.663127777750000e-2 -3.441190085170000e-2 -3.232698917630001e-2
</PP_LOCAL>
<PP_NONLOCAL>
<PP_DIJ>
6.902136161704977e-310
</PP_DIJ>
</PP_NONLOCAL>
<PP_PSWFC>
<PP_CHI.1 index="1" label="1S" l="0" occupation="1.000000000000e0" n="0" pseudo_energy="0.000000000000e0" cutoff_radius="6.902136161693e-310" ultrasoft_cutoff_radius="6.902136161693e-310">
2.884179800000000e-2 3.069922500000000e-2 3.267588800000000e-2 3.477936300000000e-2
3.701768900000000e-2 3.939939800000000e-2 4.193353600000000e-2 4.462969300000000e-2
4.749802600000000e-2 5.054929000000000e-2 5.379486000000000e-2 5.724676100000000e-2
6.091768799999999e-2 6.482103299999999e-2 6.897090100000001e-2 7.338212900000000e-2
7.807029900000000e-2 8.305173900000000e-2 8.834352400000000e-2 9.396346800000000e-2
9.993009300000001e-2 1.062626000000000e-1 1.129808000000000e-1 1.201050600000000e-1
1.276561800000000e-1 1.356552700000000e-1 1.441236100000000e-1 1.530823800000000e-1
1.625525200000000e-1 1.725543000000000e-1 1.831071000000000e-1 1.942289000000000e-1
2.059358500000000e-1 2.182417200000000e-1 2.311573100000000e-1 2.446897500000000e-1
2.588418500000000e-1 2.736113100000000e-1 2.889899600000000e-1 3.049630700000000e-1
3.215085700000000e-1 3.385965500000000e-1 3.561887100000000e-1 3.742381000000000e-1
3.926890300000000e-1 4.114772000000000e-1 4.305300400000000e-1 4.497672300000001e-1
4.691013200000000e-1 4.884382900000000e-1 5.076780400000001e-1 5.267145100000000e-1
5.454355100000000e-1 5.637221200000000e-1 5.814477999999999e-1 5.984773700000000e-1
6.146661900000000e-1 6.298597400000000e-1 6.438940300000001e-1 6.565968100000000e-1
6.677897000000001e-1 6.772909800000000e-1 6.849190400000000e-1 6.904960500000001e-1
6.938518600000000e-1 6.948280300000000e-1 6.932820600000000e-1 6.890916100000000e-1
6.821587999999999e-1 6.724145600000000e-1 6.598227300000000e-1 6.443839700000000e-1
6.261392799999999e-1 6.051728400000000e-1 5.816142900000000e-1 5.556399200000000e-1
5.274728700000000e-1 4.973819500000000e-1 4.656790800000000e-1 4.327150400000000e-1
3.988734600000000e-1 3.645631100000000e-1 3.302083800000000e-1 2.962383400000000e-1
2.630744400000000e-1 2.311175900000000e-1 2.007350800000000e-1 1.722481600000000e-1
1.459210800000000e-1 1.219524300000000e-1 1.004694600000000e-1 8.152591100000000e-2
6.510373100000000e-2 5.111847400000000e-2 3.942809200000000e-2 2.984438100000000e-2
2.214613400000000e-2 1.609293100000000e-2 1.143847700000000e-2 7.942515299999999e-3
5.380578900000001e-3 3.551111800000000e-3 2.279827200000000e-3 1.421439300000000e-3
8.591506200000000e-4 5.024207100000001e-4 2.836246100000000e-4 1.542987300000000e-4
8.071587400000000e-5 4.050918000000000e-5 1.947835900000000e-5 9.009175400000000e-6
4.147679000000000e-6 1.812825200000000e-6 7.496867000000002e-7 2.922976500000000e-7
1.070387600000000e-7 3.666647600000000e-8 1.169872700000000e-8 3.460649800000000e-9
9.445094299999999e-10 2.366071500000000e-10 5.410285400000001e-11 1.122603200000000e-11
2.100507600000001e-12 3.520601299999999e-13 5.248315200000000e-14 6.906379800000000e-15
7.958181500000001e-16 7.961411400000001e-17 6.852030100000000e-18
</PP_CHI.1>
</PP_PSWFC>
<PP_RHOATOM>
8.318493118730002e-4 9.424424156010001e-4 1.067713656590000e-3 1.209604090690000e-3
1.370309298900000e-3 1.552312562760000e-3 1.758421441460000e-3 1.991809497270000e-3
2.256062473900000e-3 2.555230719500000e-3 2.893886962420000e-3 3.277191644989999e-3
3.710964711269999e-3 4.201766319190000e-3 4.756985184750000e-3 5.384936856570000e-3
6.094971585950000e-3 6.897591350920001e-3 7.804578232740001e-3 8.829133318589999e-3
9.986023486990002e-3 1.129174015880000e-2 1.276466116860000e-2 1.442522543760000e-2
1.629610029220000e-2 1.840235227880000e-2 2.077161495940000e-2 2.343421506650000e-2
2.642332175840000e-2 2.977498644850000e-2 3.352821007040000e-2 3.772486559520000e-2
4.240957431519999e-2 4.762944834860000e-2 5.343370196640000e-2 5.987307375510000e-2
6.699910331140000e-2 7.486314895990000e-2 8.351519698080001e-2 9.300247406380000e-2
1.033677605830000e-1 1.146476236720000e-1 1.268703971310000e-1 1.400541554920000e-1
1.542046742820000e-1 1.693134861200000e-1 1.853561153420000e-1 2.022905611820000e-1
2.200560484260000e-1 2.385719631380000e-1 2.577369922980000e-1 2.774281750450000e-1
2.974998955690000e-1 3.177826285770000e-1 3.380815441250000e-1 3.581751624020000e-1
3.778145251290000e-1 3.967232920730000e-1 4.145995218700000e-1 4.311193709019999e-1
4.459430834260000e-1 4.587230715890000e-1 4.691140913550000e-1 4.767847950660000e-1
4.814304036250000e-1 4.827859912740000e-1 4.806400147180000e-1 4.748472469719999e-1
4.653406284170000e-1 4.521413405000000e-1 4.353660350250000e-1 4.152307007930000e-1
3.920503979590000e-1 3.662341662740000e-1 3.382751823320000e-1 3.087357206980000e-1
2.782276285860000e-1 2.473888041860000e-1 2.168570055500000e-1 1.872423058420000e-1
1.591000370920000e-1 1.329062611730000e-1 1.090375742220000e-1 8.775715408600000e-2
6.920816098130000e-2 5.341534040740000e-2 4.029457234260000e-2 2.966942862340000e-2
2.129296158840000e-2 1.487239518290000e-2 1.009411239270000e-2 6.646474164380001e-3
4.238495790120000e-3 2.613098384090000e-3 1.554574438760000e-3 8.906870772730000e-4
4.904512511460000e-4 2.589824281710000e-4 1.308387560800000e-4 6.308354929069998e-5
2.895062929910001e-5 1.261039501610000e-5 5.197612061860001e-6 2.020489683580000e-6
7.381397878459999e-7 2.524265698369999e-7 8.044291939770002e-8 2.380809807960000e-8
6.515052315579998e-9 1.640993664270000e-9 3.794064693330000e-10 8.116524138799999e-11
1.720324108700000e-11 3.286335205760000e-12 5.620301481569999e-13 8.543791619550001e-14
1.145729614230000e-14 1.344430462260000e-15 1.368602134210000e-16 1.197609703820000e-17
8.920980633589998e-19 5.598294343110001e-20 2.927118810950000e-21 1.260237944650000e-22
4.412132177660000e-24 1.239463351360001e-25 2.754481243859999e-27 4.769808194180000e-29
6.333265278690003e-31 6.338407148000002e-33 4.695031649130002e-35
</PP_RHOATOM>
</UPF>
