
     Program PWSCF v.6.4.1 starts on  3May2021 at 16:40:21 

     This program is part of the open-source Quantum ESPRESSO suite
     for quantum simulation of materials; please cite
         "P. Giannozzi et al., J. Phys.:Condens. Matter 21 395502 (2009);
         "P. Giannozzi et al., J. Phys.:Condens. Matter 29 465901 (2017);
          URL http://www.quantum-espresso.org", 
     in publications or presentations arising from this work. More details at
     http://www.quantum-espresso.org/quote

     Serial version
     Waiting for input...
     Reading input from standard input

     Current dimensions of program PWSCF are:
     Max number of different atomic species (ntypx) = 10
     Max number of k-points (npk) =  40000
     Max angular momentum in pseudopotentials (lmaxx) =  3

     Atomic positions and unit cell read from directory:
     ./tmp/Grafene.save/


     G-vector sticks info
     --------------------
     sticks:   dense  smooth     PW     G-vecs:    dense   smooth      PW
     Sum         241     241     85                26869    26869    5995



     bravais-lattice index     =            4
     lattice parameter (alat)  =       4.6500  a.u.
     unit-cell volume          =     783.6678 (a.u.)^3
     number of atoms/cell      =            2
     number of atomic types    =            1
     number of electrons       =         8.00
     number of Kohn-Sham states=            5
     kinetic-energy cutoff     =      40.0000  Ry
     charge density cutoff     =     160.0000  Ry
     Exchange-correlation      =  SLA  PZ   NOGX NOGC ( 1  1  0  0 0 0)

     celldm(1)=   4.650000  celldm(2)=   0.000000  celldm(3)=   9.000000
     celldm(4)=   0.000000  celldm(5)=   0.000000  celldm(6)=   0.000000

     crystal axes: (cart. coord. in units of alat)
               a(1) = (   1.000000   0.000000   0.000000 )  
               a(2) = (  -0.500000   0.866025   0.000000 )  
               a(3) = (   0.000000   0.000000   9.000000 )  

     reciprocal axes: (cart. coord. in units 2 pi/alat)
               b(1) = (  1.000000  0.577350 -0.000000 )  
               b(2) = (  0.000000  1.154701  0.000000 )  
               b(3) = (  0.000000 -0.000000  0.111111 )  


     PseudoPot. # 1 for C  read from file:
     ../../pseudo/C.pz-vbc.UPF
     MD5 check sum: ab53dd623bfeb79c5a7b057bc96eae20
     Pseudo is Norm-conserving, Zval =  4.0
     Generated by new atomic code, or converted to UPF format
     Using radial grid of  269 points,  1 beta functions with: 
                l(1) =   0

     atomic species   valence    mass     pseudopotential
        C              4.00    12.01070     C ( 1.00)

     24 Sym. Ops., with inversion, found


                                    s                        frac. trans.

      isym =  1     identity                                     

 cryst.   s( 1) = (     1          0          0      )
                  (     0          1          0      )
                  (     0          0          1      )

 cart.    s( 1) = (  1.0000000  0.0000000  0.0000000 )
                  (  0.0000000  1.0000000  0.0000000 )
                  (  0.0000000  0.0000000  1.0000000 )


      isym =  2     180 deg rotation - cart. axis [0,0,1]        

 cryst.   s( 2) = (    -1          0          0      )
                  (     0         -1          0      )
                  (     0          0          1      )

 cart.    s( 2) = ( -1.0000000  0.0000000  0.0000000 )
                  (  0.0000000 -1.0000000  0.0000000 )
                  (  0.0000000  0.0000000  1.0000000 )


      isym =  3     180 deg rotation - cart. axis [0,1,0]        

 cryst.   s( 3) = (    -1          0          0      )
                  (     1          1          0      )
                  (     0          0         -1      )

 cart.    s( 3) = ( -1.0000000  0.0000000  0.0000000 )
                  (  0.0000000  1.0000000  0.0000000 )
                  (  0.0000000  0.0000000 -1.0000000 )


      isym =  4     180 deg rotation - cart. axis [1,0,0]        

 cryst.   s( 4) = (     1          0          0      )
                  (    -1         -1          0      )
                  (     0          0         -1      )

 cart.    s( 4) = (  1.0000000  0.0000000  0.0000000 )
                  (  0.0000000 -1.0000000  0.0000000 )
                  (  0.0000000  0.0000000 -1.0000000 )


      isym =  5      60 deg rotation - cryst. axis [0,0,1]       

 cryst.   s( 5) = (     1          1          0      )
                  (    -1          0          0      )
                  (     0          0          1      )

 cart.    s( 5) = (  0.5000000 -0.8660254  0.0000000 )
                  (  0.8660254  0.5000000  0.0000000 )
                  (  0.0000000  0.0000000  1.0000000 )


      isym =  6      60 deg rotation - cryst. axis [0,0,-1]      

 cryst.   s( 6) = (     0         -1          0      )
                  (     1          1          0      )
                  (     0          0          1      )

 cart.    s( 6) = (  0.5000000  0.8660254  0.0000000 )
                  ( -0.8660254  0.5000000  0.0000000 )
                  (  0.0000000  0.0000000  1.0000000 )


      isym =  7     120 deg rotation - cryst. axis [0,0,1]       

 cryst.   s( 7) = (     0          1          0      )
                  (    -1         -1          0      )
                  (     0          0          1      )

 cart.    s( 7) = ( -0.5000000 -0.8660254  0.0000000 )
                  (  0.8660254 -0.5000000  0.0000000 )
                  (  0.0000000  0.0000000  1.0000000 )


      isym =  8     120 deg rotation - cryst. axis [0,0,-1]      

 cryst.   s( 8) = (    -1         -1          0      )
                  (     1          0          0      )
                  (     0          0          1      )

 cart.    s( 8) = ( -0.5000000  0.8660254  0.0000000 )
                  ( -0.8660254 -0.5000000  0.0000000 )
                  (  0.0000000  0.0000000  1.0000000 )


      isym =  9     180 deg rotation - cryst. axis [1,-1,0]      

 cryst.   s( 9) = (     0         -1          0      )
                  (    -1          0          0      )
                  (     0          0         -1      )

 cart.    s( 9) = (  0.5000000 -0.8660254  0.0000000 )
                  ( -0.8660254 -0.5000000  0.0000000 )
                  (  0.0000000  0.0000000 -1.0000000 )


      isym = 10     180 deg rotation - cryst. axis [2,1,0]       

 cryst.   s(10) = (     1          1          0      )
                  (     0         -1          0      )
                  (     0          0         -1      )

 cart.    s(10) = (  0.5000000  0.8660254  0.0000000 )
                  (  0.8660254 -0.5000000  0.0000000 )
                  (  0.0000000  0.0000000 -1.0000000 )


      isym = 11     180 deg rotation - cryst. axis [0,1,0]       

 cryst.   s(11) = (    -1         -1          0      )
                  (     0          1          0      )
                  (     0          0         -1      )

 cart.    s(11) = ( -0.5000000 -0.8660254  0.0000000 )
                  ( -0.8660254  0.5000000  0.0000000 )
                  (  0.0000000  0.0000000 -1.0000000 )


      isym = 12     180 deg rotation - cryst. axis [1,1,0]       

 cryst.   s(12) = (     0          1          0      )
                  (     1          0          0      )
                  (     0          0         -1      )

 cart.    s(12) = ( -0.5000000  0.8660254  0.0000000 )
                  (  0.8660254  0.5000000  0.0000000 )
                  (  0.0000000  0.0000000 -1.0000000 )


      isym = 13     inversion                                    

 cryst.   s(13) = (    -1          0          0      )
                  (     0         -1          0      )
                  (     0          0         -1      )

 cart.    s(13) = ( -1.0000000  0.0000000  0.0000000 )
                  (  0.0000000 -1.0000000  0.0000000 )
                  (  0.0000000  0.0000000 -1.0000000 )


      isym = 14     inv. 180 deg rotation - cart. axis [0,0,1]   

 cryst.   s(14) = (     1          0          0      )
                  (     0          1          0      )
                  (     0          0         -1      )

 cart.    s(14) = (  1.0000000  0.0000000  0.0000000 )
                  (  0.0000000  1.0000000  0.0000000 )
                  (  0.0000000  0.0000000 -1.0000000 )


      isym = 15     inv. 180 deg rotation - cart. axis [0,1,0]   

 cryst.   s(15) = (     1          0          0      )
                  (    -1         -1          0      )
                  (     0          0          1      )

 cart.    s(15) = (  1.0000000  0.0000000  0.0000000 )
                  (  0.0000000 -1.0000000  0.0000000 )
                  (  0.0000000  0.0000000  1.0000000 )


      isym = 16     inv. 180 deg rotation - cart. axis [1,0,0]   

 cryst.   s(16) = (    -1          0          0      )
                  (     1          1          0      )
                  (     0          0          1      )

 cart.    s(16) = ( -1.0000000  0.0000000  0.0000000 )
                  (  0.0000000  1.0000000  0.0000000 )
                  (  0.0000000  0.0000000  1.0000000 )


      isym = 17     inv.  60 deg rotation - cryst. axis [0,0,1]  

 cryst.   s(17) = (    -1         -1          0      )
                  (     1          0          0      )
                  (     0          0         -1      )

 cart.    s(17) = ( -0.5000000  0.8660254  0.0000000 )
                  ( -0.8660254 -0.5000000  0.0000000 )
                  (  0.0000000  0.0000000 -1.0000000 )


      isym = 18     inv.  60 deg rotation - cryst. axis [0,0,-1] 

 cryst.   s(18) = (     0          1          0      )
                  (    -1         -1          0      )
                  (     0          0         -1      )

 cart.    s(18) = ( -0.5000000 -0.8660254  0.0000000 )
                  (  0.8660254 -0.5000000  0.0000000 )
                  (  0.0000000  0.0000000 -1.0000000 )


      isym = 19     inv. 120 deg rotation - cryst. axis [0,0,1]  

 cryst.   s(19) = (     0         -1          0      )
                  (     1          1          0      )
                  (     0          0         -1      )

 cart.    s(19) = (  0.5000000  0.8660254  0.0000000 )
                  ( -0.8660254  0.5000000  0.0000000 )
                  (  0.0000000  0.0000000 -1.0000000 )


      isym = 20     inv. 120 deg rotation - cryst. axis [0,0,-1] 

 cryst.   s(20) = (     1          1          0      )
                  (    -1          0          0      )
                  (     0          0         -1      )

 cart.    s(20) = (  0.5000000 -0.8660254  0.0000000 )
                  (  0.8660254  0.5000000  0.0000000 )
                  (  0.0000000  0.0000000 -1.0000000 )


      isym = 21     inv. 180 deg rotation - cryst. axis [1,-1,0] 

 cryst.   s(21) = (     0          1          0      )
                  (     1          0          0      )
                  (     0          0          1      )

 cart.    s(21) = ( -0.5000000  0.8660254  0.0000000 )
                  (  0.8660254  0.5000000  0.0000000 )
                  (  0.0000000  0.0000000  1.0000000 )


      isym = 22     inv. 180 deg rotation - cryst. axis [2,1,0]  

 cryst.   s(22) = (    -1         -1          0      )
                  (     0          1          0      )
                  (     0          0          1      )

 cart.    s(22) = ( -0.5000000 -0.8660254  0.0000000 )
                  ( -0.8660254  0.5000000  0.0000000 )
                  (  0.0000000  0.0000000  1.0000000 )


      isym = 23     inv. 180 deg rotation - cryst. axis [0,1,0]  

 cryst.   s(23) = (     1          1          0      )
                  (     0         -1          0      )
                  (     0          0          1      )

 cart.    s(23) = (  0.5000000  0.8660254  0.0000000 )
                  (  0.8660254 -0.5000000  0.0000000 )
                  (  0.0000000  0.0000000  1.0000000 )


      isym = 24     inv. 180 deg rotation - cryst. axis [1,1,0]  

 cryst.   s(24) = (     0         -1          0      )
                  (    -1          0          0      )
                  (     0          0          1      )

 cart.    s(24) = (  0.5000000 -0.8660254  0.0000000 )
                  ( -0.8660254 -0.5000000  0.0000000 )
                  (  0.0000000  0.0000000  1.0000000 )


     point group D_6h(6/mmm)
     there are 12 classes
     the character table:

       E     2C6   2C3   C2    3C2'  3C2'' i     2S3   2S6   s_h   3s_d  3s_v 
A_1g   1.00  1.00  1.00  1.00  1.00  1.00  1.00  1.00  1.00  1.00  1.00  1.00
A_2g   1.00  1.00  1.00  1.00 -1.00 -1.00  1.00  1.00  1.00  1.00 -1.00 -1.00
B_1g   1.00 -1.00  1.00 -1.00  1.00 -1.00  1.00 -1.00  1.00 -1.00  1.00 -1.00
B_2g   1.00 -1.00  1.00 -1.00 -1.00  1.00  1.00 -1.00  1.00 -1.00 -1.00  1.00
E_1g   2.00  1.00 -1.00 -2.00  0.00  0.00  2.00  1.00 -1.00 -2.00  0.00  0.00
E_2g   2.00 -1.00 -1.00  2.00  0.00  0.00  2.00 -1.00 -1.00  2.00  0.00  0.00
A_1u   1.00  1.00  1.00  1.00  1.00  1.00 -1.00 -1.00 -1.00 -1.00 -1.00 -1.00
A_2u   1.00  1.00  1.00  1.00 -1.00 -1.00 -1.00 -1.00 -1.00 -1.00  1.00  1.00
B_1u   1.00 -1.00  1.00 -1.00  1.00 -1.00 -1.00  1.00 -1.00  1.00 -1.00  1.00
B_2u   1.00 -1.00  1.00 -1.00 -1.00  1.00 -1.00  1.00 -1.00  1.00  1.00 -1.00
E_1u   2.00  1.00 -1.00 -2.00  0.00  0.00 -2.00 -1.00  1.00  2.00  0.00  0.00
E_2u   2.00 -1.00 -1.00  2.00  0.00  0.00 -2.00  1.00  1.00 -2.00  0.00  0.00

     the symmetry operations in each class and the name of the first element:

     E        1
          identity                                               
     2C6      5    6
           60 deg rotation - cryst. axis [0,0,1]                 
     2C3      7    8
          120 deg rotation - cryst. axis [0,0,1]                 
     C2       2
          180 deg rotation - cart. axis [0,0,1]                  
     3C2'     4   12   11
          180 deg rotation - cart. axis [1,0,0]                  
     3C2''    3    9   10
          180 deg rotation - cart. axis [0,1,0]                  
     i       13
          inversion                                              
     2S3     17   18
          inv.  60 deg rotation - cryst. axis [0,0,1]            
     2S6     19   20
          inv. 120 deg rotation - cryst. axis [0,0,1]            
     s_h     14
          inv. 180 deg rotation - cart. axis [0,0,1]             
     3s_d    16   24   23
          inv. 180 deg rotation - cart. axis [1,0,0]             
     3s_v    15   21   22
          inv. 180 deg rotation - cart. axis [0,1,0]             

   Cartesian axes

     site n.     atom                  positions (alat units)
         1           C   tau(   1) = (   0.0000000   0.5773503   0.0000000  )
         2           C   tau(   2) = (   0.5000000   0.2886751   0.0000000  )

   Crystallographic axes

     site n.     atom                  positions (cryst. coord.)
         1           C   tau(   1) = (  0.3333334  0.6666667  0.0000000  )
         2           C   tau(   2) = (  0.6666666  0.3333333  0.0000000  )

     number of k points=   121  gaussian smearing, width (Ry)=  0.0300
                       cart. coord. in units 2pi/alat
        k(    1) = (   0.0238095   0.0412393  -0.0555556), wk =   0.0090703
        k(    2) = (   0.0238095   0.0962250  -0.0555556), wk =   0.0181406
        k(    3) = (   0.0238095   0.1512108  -0.0555556), wk =   0.0181406
        k(    4) = (   0.0238095   0.2061965  -0.0555556), wk =   0.0181406
        k(    5) = (   0.0238095   0.2611823  -0.0555556), wk =   0.0181406
        k(    6) = (   0.0238095   0.3161680  -0.0555556), wk =   0.0181406
        k(    7) = (   0.0238095   0.3711537  -0.0555556), wk =   0.0181406
        k(    8) = (   0.0238095   0.4261395  -0.0555556), wk =   0.0181406
        k(    9) = (   0.0238095   0.4811252  -0.0555556), wk =   0.0181406
        k(   10) = (   0.0238095   0.5361110  -0.0555556), wk =   0.0181406
        k(   11) = (   0.0238095  -0.5636038  -0.0555556), wk =   0.0181406
        k(   12) = (   0.0238095  -0.5086181  -0.0555556), wk =   0.0181406
        k(   13) = (   0.0238095  -0.4536324  -0.0555556), wk =   0.0181406
        k(   14) = (   0.0238095  -0.3986466  -0.0555556), wk =   0.0181406
        k(   15) = (   0.0238095  -0.3436609  -0.0555556), wk =   0.0181406
        k(   16) = (   0.0238095  -0.2886751  -0.0555556), wk =   0.0181406
        k(   17) = (   0.0238095  -0.2336894  -0.0555556), wk =   0.0181406
        k(   18) = (   0.0238095  -0.1787037  -0.0555556), wk =   0.0181406
        k(   19) = (   0.0238095  -0.1237179  -0.0555556), wk =   0.0181406
        k(   20) = (   0.0238095  -0.0687322  -0.0555556), wk =   0.0181406
        k(   21) = (   0.0238095  -0.0137464  -0.0555556), wk =   0.0090703
        k(   22) = (   0.0714286   0.1237179  -0.0555556), wk =   0.0090703
        k(   23) = (   0.0714286   0.1787037  -0.0555556), wk =   0.0181406
        k(   24) = (   0.0714286   0.2336894  -0.0555556), wk =   0.0181406
        k(   25) = (   0.0714286   0.2886751  -0.0555556), wk =   0.0181406
        k(   26) = (   0.0714286   0.3436609  -0.0555556), wk =   0.0181406
        k(   27) = (   0.0714286   0.3986466  -0.0555556), wk =   0.0181406
        k(   28) = (   0.0714286   0.4536324  -0.0555556), wk =   0.0181406
        k(   29) = (   0.0714286   0.5086181  -0.0555556), wk =   0.0181406
        k(   30) = (   0.0714286   0.5636038  -0.0555556), wk =   0.0181406
        k(   31) = (   0.0714286  -0.5361110  -0.0555556), wk =   0.0181406
        k(   32) = (   0.0714286  -0.4811252  -0.0555556), wk =   0.0181406
        k(   33) = (   0.0714286  -0.4261395  -0.0555556), wk =   0.0181406
        k(   34) = (   0.0714286  -0.3711537  -0.0555556), wk =   0.0181406
        k(   35) = (   0.0714286  -0.3161680  -0.0555556), wk =   0.0181406
        k(   36) = (   0.0714286  -0.2611823  -0.0555556), wk =   0.0181406
        k(   37) = (   0.0714286  -0.2061965  -0.0555556), wk =   0.0181406
        k(   38) = (   0.0714286  -0.1512108  -0.0555556), wk =   0.0181406
        k(   39) = (   0.0714286  -0.0962250  -0.0555556), wk =   0.0181406
        k(   40) = (   0.0714286  -0.0412393  -0.0555556), wk =   0.0090703
        k(   41) = (   0.1190476   0.2061965  -0.0555556), wk =   0.0090703
        k(   42) = (   0.1190476   0.2611823  -0.0555556), wk =   0.0181406
        k(   43) = (   0.1190476   0.3161680  -0.0555556), wk =   0.0181406
        k(   44) = (   0.1190476   0.3711537  -0.0555556), wk =   0.0181406
        k(   45) = (   0.1190476   0.4261395  -0.0555556), wk =   0.0181406
        k(   46) = (   0.1190476   0.4811252  -0.0555556), wk =   0.0181406
        k(   47) = (   0.1190476   0.5361110  -0.0555556), wk =   0.0181406
        k(   48) = (   0.1190476   0.5910967  -0.0555556), wk =   0.0181406
        k(   49) = (   0.1190476  -0.5086181  -0.0555556), wk =   0.0181406
        k(   50) = (   0.1190476  -0.4536324  -0.0555556), wk =   0.0181406
        k(   51) = (   0.1190476  -0.3986466  -0.0555556), wk =   0.0181406
        k(   52) = (   0.1190476  -0.3436609  -0.0555556), wk =   0.0181406
        k(   53) = (   0.1190476  -0.2886751  -0.0555556), wk =   0.0181406
        k(   54) = (   0.1190476  -0.2336894  -0.0555556), wk =   0.0181406
        k(   55) = (   0.1190476  -0.1787037  -0.0555556), wk =   0.0181406
        k(   56) = (   0.1190476  -0.1237179  -0.0555556), wk =   0.0181406
        k(   57) = (   0.1190476  -0.0687322  -0.0555556), wk =   0.0090703
        k(   58) = (   0.1666667   0.2886751  -0.0555556), wk =   0.0090703
        k(   59) = (   0.1666667   0.3436609  -0.0555556), wk =   0.0181406
        k(   60) = (   0.1666667   0.3986466  -0.0555556), wk =   0.0181406
        k(   61) = (   0.1666667   0.4536324  -0.0555556), wk =   0.0181406
        k(   62) = (   0.1666667   0.5086181  -0.0555556), wk =   0.0181406
        k(   63) = (   0.1666667   0.5636038  -0.0555556), wk =   0.0181406
        k(   64) = (   0.1666667   0.6185896  -0.0555556), wk =   0.0181406
        k(   65) = (   0.1666667  -0.4811252  -0.0555556), wk =   0.0181406
        k(   66) = (   0.1666667  -0.4261395  -0.0555556), wk =   0.0181406
        k(   67) = (   0.1666667  -0.3711537  -0.0555556), wk =   0.0181406
        k(   68) = (   0.1666667  -0.3161680  -0.0555556), wk =   0.0181406
        k(   69) = (   0.1666667  -0.2611823  -0.0555556), wk =   0.0181406
        k(   70) = (   0.1666667  -0.2061965  -0.0555556), wk =   0.0181406
        k(   71) = (   0.1666667  -0.1512108  -0.0555556), wk =   0.0181406
        k(   72) = (   0.1666667  -0.0962250  -0.0555556), wk =   0.0090703
        k(   73) = (   0.2142857   0.3711537  -0.0555556), wk =   0.0090703
        k(   74) = (   0.2142857   0.4261395  -0.0555556), wk =   0.0181406
        k(   75) = (   0.2142857   0.4811252  -0.0555556), wk =   0.0181406
        k(   76) = (   0.2142857   0.5361110  -0.0555556), wk =   0.0181406
        k(   77) = (   0.2142857   0.5910967  -0.0555556), wk =   0.0181406
        k(   78) = (   0.2142857   0.6460824  -0.0555556), wk =   0.0181406
        k(   79) = (   0.2142857  -0.4536324  -0.0555556), wk =   0.0181406
        k(   80) = (   0.2142857  -0.3986466  -0.0555556), wk =   0.0181406
        k(   81) = (   0.2142857  -0.3436609  -0.0555556), wk =   0.0181406
        k(   82) = (   0.2142857  -0.2886751  -0.0555556), wk =   0.0181406
        k(   83) = (   0.2142857  -0.2336894  -0.0555556), wk =   0.0181406
        k(   84) = (   0.2142857  -0.1787037  -0.0555556), wk =   0.0181406
        k(   85) = (   0.2142857  -0.1237179  -0.0555556), wk =   0.0090703
        k(   86) = (   0.2619048   0.4536324  -0.0555556), wk =   0.0090703
        k(   87) = (   0.2619048   0.5086181  -0.0555556), wk =   0.0181406
        k(   88) = (   0.2619048   0.5636038  -0.0555556), wk =   0.0181406
        k(   89) = (   0.2619048   0.6185896  -0.0555556), wk =   0.0181406
        k(   90) = (   0.2619048   0.6735753  -0.0555556), wk =   0.0181406
        k(   91) = (   0.2619048  -0.4261395  -0.0555556), wk =   0.0181406
        k(   92) = (   0.2619048  -0.3711537  -0.0555556), wk =   0.0181406
        k(   93) = (   0.2619048  -0.3161680  -0.0555556), wk =   0.0181406
        k(   94) = (   0.2619048  -0.2611823  -0.0555556), wk =   0.0181406
        k(   95) = (   0.2619048  -0.2061965  -0.0555556), wk =   0.0181406
        k(   96) = (   0.2619048  -0.1512108  -0.0555556), wk =   0.0090703
        k(   97) = (   0.3095238   0.5361110  -0.0555556), wk =   0.0090703
        k(   98) = (   0.3095238   0.5910967  -0.0555556), wk =   0.0181406
        k(   99) = (   0.3095238   0.6460824  -0.0555556), wk =   0.0181406
        k(  100) = (   0.3095238   0.7010682  -0.0555556), wk =   0.0181406
        k(  101) = (   0.3095238  -0.3986466  -0.0555556), wk =   0.0181406
        k(  102) = (   0.3095238  -0.3436609  -0.0555556), wk =   0.0181406
        k(  103) = (   0.3095238  -0.2886751  -0.0555556), wk =   0.0181406
        k(  104) = (   0.3095238  -0.2336894  -0.0555556), wk =   0.0181406
        k(  105) = (   0.3095238  -0.1787037  -0.0555556), wk =   0.0090703
        k(  106) = (   0.3571429   0.6185896  -0.0555556), wk =   0.0090703
        k(  107) = (   0.3571429   0.6735753  -0.0555556), wk =   0.0181406
        k(  108) = (   0.3571429   0.7285611  -0.0555556), wk =   0.0181406
        k(  109) = (   0.3571429  -0.3711537  -0.0555556), wk =   0.0181406
        k(  110) = (   0.3571429  -0.3161680  -0.0555556), wk =   0.0181406
        k(  111) = (   0.3571429  -0.2611823  -0.0555556), wk =   0.0181406
        k(  112) = (   0.3571429  -0.2061965  -0.0555556), wk =   0.0090703
        k(  113) = (   0.4047619   0.7010682  -0.0555556), wk =   0.0090703
        k(  114) = (   0.4047619   0.7560539  -0.0555556), wk =   0.0181406
        k(  115) = (   0.4047619  -0.3436609  -0.0555556), wk =   0.0181406
        k(  116) = (   0.4047619  -0.2886751  -0.0555556), wk =   0.0181406
        k(  117) = (   0.4047619  -0.2336894  -0.0555556), wk =   0.0090703
        k(  118) = (   0.4523810   0.7835468  -0.0555556), wk =   0.0090703
        k(  119) = (   0.4523810  -0.3161680  -0.0555556), wk =   0.0181406
        k(  120) = (   0.4523810  -0.2611823  -0.0555556), wk =   0.0090703
        k(  121) = (  -0.5000000  -0.8660254  -0.0555556), wk =   0.0045351

                       cryst. coord.
        k(    1) = (   0.0238095   0.0238095  -0.5000000), wk =   0.0090703
        k(    2) = (   0.0238095   0.0714286  -0.5000000), wk =   0.0181406
        k(    3) = (   0.0238095   0.1190476  -0.5000000), wk =   0.0181406
        k(    4) = (   0.0238095   0.1666667  -0.5000000), wk =   0.0181406
        k(    5) = (   0.0238095   0.2142857  -0.5000000), wk =   0.0181406
        k(    6) = (   0.0238095   0.2619048  -0.5000000), wk =   0.0181406
        k(    7) = (   0.0238095   0.3095238  -0.5000000), wk =   0.0181406
        k(    8) = (   0.0238095   0.3571429  -0.5000000), wk =   0.0181406
        k(    9) = (   0.0238095   0.4047619  -0.5000000), wk =   0.0181406
        k(   10) = (   0.0238095   0.4523810  -0.5000000), wk =   0.0181406
        k(   11) = (   0.0238095  -0.5000000  -0.5000000), wk =   0.0181406
        k(   12) = (   0.0238095  -0.4523810  -0.5000000), wk =   0.0181406
        k(   13) = (   0.0238095  -0.4047619  -0.5000000), wk =   0.0181406
        k(   14) = (   0.0238095  -0.3571429  -0.5000000), wk =   0.0181406
        k(   15) = (   0.0238095  -0.3095238  -0.5000000), wk =   0.0181406
        k(   16) = (   0.0238095  -0.2619048  -0.5000000), wk =   0.0181406
        k(   17) = (   0.0238095  -0.2142857  -0.5000000), wk =   0.0181406
        k(   18) = (   0.0238095  -0.1666667  -0.5000000), wk =   0.0181406
        k(   19) = (   0.0238095  -0.1190476  -0.5000000), wk =   0.0181406
        k(   20) = (   0.0238095  -0.0714286  -0.5000000), wk =   0.0181406
        k(   21) = (   0.0238095  -0.0238095  -0.5000000), wk =   0.0090703
        k(   22) = (   0.0714286   0.0714286  -0.5000000), wk =   0.0090703
        k(   23) = (   0.0714286   0.1190476  -0.5000000), wk =   0.0181406
        k(   24) = (   0.0714286   0.1666667  -0.5000000), wk =   0.0181406
        k(   25) = (   0.0714286   0.2142857  -0.5000000), wk =   0.0181406
        k(   26) = (   0.0714286   0.2619048  -0.5000000), wk =   0.0181406
        k(   27) = (   0.0714286   0.3095238  -0.5000000), wk =   0.0181406
        k(   28) = (   0.0714286   0.3571429  -0.5000000), wk =   0.0181406
        k(   29) = (   0.0714286   0.4047619  -0.5000000), wk =   0.0181406
        k(   30) = (   0.0714286   0.4523810  -0.5000000), wk =   0.0181406
        k(   31) = (   0.0714286  -0.5000000  -0.5000000), wk =   0.0181406
        k(   32) = (   0.0714286  -0.4523810  -0.5000000), wk =   0.0181406
        k(   33) = (   0.0714286  -0.4047619  -0.5000000), wk =   0.0181406
        k(   34) = (   0.0714286  -0.3571429  -0.5000000), wk =   0.0181406
        k(   35) = (   0.0714286  -0.3095238  -0.5000000), wk =   0.0181406
        k(   36) = (   0.0714286  -0.2619048  -0.5000000), wk =   0.0181406
        k(   37) = (   0.0714286  -0.2142857  -0.5000000), wk =   0.0181406
        k(   38) = (   0.0714286  -0.1666667  -0.5000000), wk =   0.0181406
        k(   39) = (   0.0714286  -0.1190476  -0.5000000), wk =   0.0181406
        k(   40) = (   0.0714286  -0.0714286  -0.5000000), wk =   0.0090703
        k(   41) = (   0.1190476   0.1190476  -0.5000000), wk =   0.0090703
        k(   42) = (   0.1190476   0.1666667  -0.5000000), wk =   0.0181406
        k(   43) = (   0.1190476   0.2142857  -0.5000000), wk =   0.0181406
        k(   44) = (   0.1190476   0.2619048  -0.5000000), wk =   0.0181406
        k(   45) = (   0.1190476   0.3095238  -0.5000000), wk =   0.0181406
        k(   46) = (   0.1190476   0.3571429  -0.5000000), wk =   0.0181406
        k(   47) = (   0.1190476   0.4047619  -0.5000000), wk =   0.0181406
        k(   48) = (   0.1190476   0.4523810  -0.5000000), wk =   0.0181406
        k(   49) = (   0.1190476  -0.5000000  -0.5000000), wk =   0.0181406
        k(   50) = (   0.1190476  -0.4523810  -0.5000000), wk =   0.0181406
        k(   51) = (   0.1190476  -0.4047619  -0.5000000), wk =   0.0181406
        k(   52) = (   0.1190476  -0.3571429  -0.5000000), wk =   0.0181406
        k(   53) = (   0.1190476  -0.3095238  -0.5000000), wk =   0.0181406
        k(   54) = (   0.1190476  -0.2619048  -0.5000000), wk =   0.0181406
        k(   55) = (   0.1190476  -0.2142857  -0.5000000), wk =   0.0181406
        k(   56) = (   0.1190476  -0.1666667  -0.5000000), wk =   0.0181406
        k(   57) = (   0.1190476  -0.1190476  -0.5000000), wk =   0.0090703
        k(   58) = (   0.1666667   0.1666667  -0.5000000), wk =   0.0090703
        k(   59) = (   0.1666667   0.2142857  -0.5000000), wk =   0.0181406
        k(   60) = (   0.1666667   0.2619048  -0.5000000), wk =   0.0181406
        k(   61) = (   0.1666667   0.3095238  -0.5000000), wk =   0.0181406
        k(   62) = (   0.1666667   0.3571429  -0.5000000), wk =   0.0181406
        k(   63) = (   0.1666667   0.4047619  -0.5000000), wk =   0.0181406
        k(   64) = (   0.1666667   0.4523810  -0.5000000), wk =   0.0181406
        k(   65) = (   0.1666667  -0.5000000  -0.5000000), wk =   0.0181406
        k(   66) = (   0.1666667  -0.4523810  -0.5000000), wk =   0.0181406
        k(   67) = (   0.1666667  -0.4047619  -0.5000000), wk =   0.0181406
        k(   68) = (   0.1666667  -0.3571429  -0.5000000), wk =   0.0181406
        k(   69) = (   0.1666667  -0.3095238  -0.5000000), wk =   0.0181406
        k(   70) = (   0.1666667  -0.2619048  -0.5000000), wk =   0.0181406
        k(   71) = (   0.1666667  -0.2142857  -0.5000000), wk =   0.0181406
        k(   72) = (   0.1666667  -0.1666667  -0.5000000), wk =   0.0090703
        k(   73) = (   0.2142857   0.2142857  -0.5000000), wk =   0.0090703
        k(   74) = (   0.2142857   0.2619048  -0.5000000), wk =   0.0181406
        k(   75) = (   0.2142857   0.3095238  -0.5000000), wk =   0.0181406
        k(   76) = (   0.2142857   0.3571429  -0.5000000), wk =   0.0181406
        k(   77) = (   0.2142857   0.4047619  -0.5000000), wk =   0.0181406
        k(   78) = (   0.2142857   0.4523810  -0.5000000), wk =   0.0181406
        k(   79) = (   0.2142857  -0.5000000  -0.5000000), wk =   0.0181406
        k(   80) = (   0.2142857  -0.4523810  -0.5000000), wk =   0.0181406
        k(   81) = (   0.2142857  -0.4047619  -0.5000000), wk =   0.0181406
        k(   82) = (   0.2142857  -0.3571429  -0.5000000), wk =   0.0181406
        k(   83) = (   0.2142857  -0.3095238  -0.5000000), wk =   0.0181406
        k(   84) = (   0.2142857  -0.2619048  -0.5000000), wk =   0.0181406
        k(   85) = (   0.2142857  -0.2142857  -0.5000000), wk =   0.0090703
        k(   86) = (   0.2619048   0.2619048  -0.5000000), wk =   0.0090703
        k(   87) = (   0.2619048   0.3095238  -0.5000000), wk =   0.0181406
        k(   88) = (   0.2619048   0.3571429  -0.5000000), wk =   0.0181406
        k(   89) = (   0.2619048   0.4047619  -0.5000000), wk =   0.0181406
        k(   90) = (   0.2619048   0.4523810  -0.5000000), wk =   0.0181406
        k(   91) = (   0.2619048  -0.5000000  -0.5000000), wk =   0.0181406
        k(   92) = (   0.2619048  -0.4523810  -0.5000000), wk =   0.0181406
        k(   93) = (   0.2619048  -0.4047619  -0.5000000), wk =   0.0181406
        k(   94) = (   0.2619048  -0.3571429  -0.5000000), wk =   0.0181406
        k(   95) = (   0.2619048  -0.3095238  -0.5000000), wk =   0.0181406
        k(   96) = (   0.2619048  -0.2619048  -0.5000000), wk =   0.0090703
        k(   97) = (   0.3095238   0.3095238  -0.5000000), wk =   0.0090703
        k(   98) = (   0.3095238   0.3571429  -0.5000000), wk =   0.0181406
        k(   99) = (   0.3095238   0.4047619  -0.5000000), wk =   0.0181406
        k(  100) = (   0.3095238   0.4523810  -0.5000000), wk =   0.0181406
        k(  101) = (   0.3095238  -0.5000000  -0.5000000), wk =   0.0181406
        k(  102) = (   0.3095238  -0.4523810  -0.5000000), wk =   0.0181406
        k(  103) = (   0.3095238  -0.4047619  -0.5000000), wk =   0.0181406
        k(  104) = (   0.3095238  -0.3571429  -0.5000000), wk =   0.0181406
        k(  105) = (   0.3095238  -0.3095238  -0.5000000), wk =   0.0090703
        k(  106) = (   0.3571429   0.3571429  -0.5000000), wk =   0.0090703
        k(  107) = (   0.3571429   0.4047619  -0.5000000), wk =   0.0181406
        k(  108) = (   0.3571429   0.4523810  -0.5000000), wk =   0.0181406
        k(  109) = (   0.3571429  -0.5000000  -0.5000000), wk =   0.0181406
        k(  110) = (   0.3571429  -0.4523810  -0.5000000), wk =   0.0181406
        k(  111) = (   0.3571429  -0.4047619  -0.5000000), wk =   0.0181406
        k(  112) = (   0.3571429  -0.3571429  -0.5000000), wk =   0.0090703
        k(  113) = (   0.4047619   0.4047619  -0.5000000), wk =   0.0090703
        k(  114) = (   0.4047619   0.4523810  -0.5000000), wk =   0.0181406
        k(  115) = (   0.4047619  -0.5000000  -0.5000000), wk =   0.0181406
        k(  116) = (   0.4047619  -0.4523810  -0.5000000), wk =   0.0181406
        k(  117) = (   0.4047619  -0.4047619  -0.5000000), wk =   0.0090703
        k(  118) = (   0.4523810   0.4523810  -0.5000000), wk =   0.0090703
        k(  119) = (   0.4523810  -0.5000000  -0.5000000), wk =   0.0181406
        k(  120) = (   0.4523810  -0.4523810  -0.5000000), wk =   0.0090703
        k(  121) = (  -0.5000000  -0.5000000  -0.5000000), wk =   0.0045351

     Dense  grid:    26869 G-vectors     FFT dimensions: (  20,  20, 180)

     Dynamical RAM for                 wfc:       0.26 MB

     Dynamical RAM for     wfc (w. buffer):       0.26 MB

     Dynamical RAM for           str. fact:       0.41 MB

     Dynamical RAM for           local pot:       0.00 MB

     Dynamical RAM for          nlocal pot:       0.10 MB

     Dynamical RAM for                qrad:       0.01 MB

     Dynamical RAM for          rho,v,vnew:       2.88 MB

     Dynamical RAM for           G-vectors:       1.74 MB

     Dynamical RAM for          h,s,v(r/c):       0.02 MB

     Dynamical RAM for          <psi|beta>:       0.00 MB

     Dynamical RAM for                 psi:       1.02 MB

     Dynamical RAM for                hpsi:       1.02 MB

     Dynamical RAM for      wfcinit/wfcrot:       0.82 MB

     Estimated static dynamical RAM per process >       8.96 MB

     Estimated max dynamical RAM per process >      11.02 MB

     The potential is recalculated from file :
     ./tmp/Grafene.save/charge-density


     negative rho (up, down):  1.167E-03 0.000E+00
     Starting wfcs are    8 randomized atomic wfcs

     Band Structure Calculation
     Davidson diagonalization with overlap

     Computing kpt #:     1
     total cpu time spent up to now is        0.3 secs

     Computing kpt #:     2
     total cpu time spent up to now is        0.4 secs

     Computing kpt #:     3
     total cpu time spent up to now is        0.6 secs

     Computing kpt #:     4
     total cpu time spent up to now is        0.7 secs

     Computing kpt #:     5
     total cpu time spent up to now is        0.8 secs

     Computing kpt #:     6
     total cpu time spent up to now is        0.9 secs

     Computing kpt #:     7
     total cpu time spent up to now is        1.0 secs

     Computing kpt #:     8
     total cpu time spent up to now is        1.1 secs

     Computing kpt #:     9
     total cpu time spent up to now is        1.2 secs

     Computing kpt #:    10
     total cpu time spent up to now is        1.2 secs

     Computing kpt #:    11
     total cpu time spent up to now is        1.3 secs

     Computing kpt #:    12
     total cpu time spent up to now is        1.4 secs

     Computing kpt #:    13
     total cpu time spent up to now is        1.4 secs

     Computing kpt #:    14
     total cpu time spent up to now is        1.5 secs

     Computing kpt #:    15
     total cpu time spent up to now is        1.6 secs

     Computing kpt #:    16
     total cpu time spent up to now is        1.7 secs

     Computing kpt #:    17
     total cpu time spent up to now is        1.9 secs

     Computing kpt #:    18
     total cpu time spent up to now is        2.0 secs

     Computing kpt #:    19
     total cpu time spent up to now is        2.1 secs

     Computing kpt #:    20
     total cpu time spent up to now is        2.4 secs

     Computing kpt #:    21
     total cpu time spent up to now is        2.6 secs

     Computing kpt #:    22
     total cpu time spent up to now is        2.7 secs

     Computing kpt #:    23
     total cpu time spent up to now is        2.8 secs

     Computing kpt #:    24
     total cpu time spent up to now is        2.9 secs

     Computing kpt #:    25
     total cpu time spent up to now is        3.0 secs

     Computing kpt #:    26
     total cpu time spent up to now is        3.1 secs

     Computing kpt #:    27
     total cpu time spent up to now is        3.2 secs

     Computing kpt #:    28
     total cpu time spent up to now is        3.3 secs

     Computing kpt #:    29
     total cpu time spent up to now is        3.3 secs

     Computing kpt #:    30
     total cpu time spent up to now is        3.4 secs

     Computing kpt #:    31
     total cpu time spent up to now is        3.5 secs

     Computing kpt #:    32
     total cpu time spent up to now is        3.5 secs

     Computing kpt #:    33
     total cpu time spent up to now is        3.6 secs

     Computing kpt #:    34
     total cpu time spent up to now is        3.7 secs

     Computing kpt #:    35
     total cpu time spent up to now is        3.8 secs

     Computing kpt #:    36
     total cpu time spent up to now is        3.9 secs

     Computing kpt #:    37
     total cpu time spent up to now is        4.1 secs

     Computing kpt #:    38
     total cpu time spent up to now is        4.2 secs

     Computing kpt #:    39
     total cpu time spent up to now is        4.3 secs

     Computing kpt #:    40
     total cpu time spent up to now is        4.4 secs

     Computing kpt #:    41
     total cpu time spent up to now is        4.5 secs

     Computing kpt #:    42
     total cpu time spent up to now is        4.6 secs

     Computing kpt #:    43
     total cpu time spent up to now is        4.7 secs

     Computing kpt #:    44
     total cpu time spent up to now is        4.8 secs

     Computing kpt #:    45
     total cpu time spent up to now is        4.9 secs

     Computing kpt #:    46
     total cpu time spent up to now is        5.0 secs

     Computing kpt #:    47
     total cpu time spent up to now is        5.0 secs

     Computing kpt #:    48
     total cpu time spent up to now is        5.1 secs

     Computing kpt #:    49
     total cpu time spent up to now is        5.2 secs

     Computing kpt #:    50
     total cpu time spent up to now is        5.2 secs

     Computing kpt #:    51
     total cpu time spent up to now is        5.3 secs

     Computing kpt #:    52
     total cpu time spent up to now is        5.4 secs

     Computing kpt #:    53
     total cpu time spent up to now is        5.5 secs

     Computing kpt #:    54
     total cpu time spent up to now is        5.6 secs

     Computing kpt #:    55
     total cpu time spent up to now is        5.8 secs

     Computing kpt #:    56
     total cpu time spent up to now is        5.9 secs

     Computing kpt #:    57
     total cpu time spent up to now is        6.0 secs

     Computing kpt #:    58
     total cpu time spent up to now is        6.1 secs

     Computing kpt #:    59
     total cpu time spent up to now is        6.2 secs

     Computing kpt #:    60
     total cpu time spent up to now is        6.2 secs

     Computing kpt #:    61
     total cpu time spent up to now is        6.3 secs

     Computing kpt #:    62
     total cpu time spent up to now is        6.4 secs

     Computing kpt #:    63
     total cpu time spent up to now is        6.4 secs

     Computing kpt #:    64
     total cpu time spent up to now is        6.5 secs

     Computing kpt #:    65
     total cpu time spent up to now is        6.6 secs

     Computing kpt #:    66
     total cpu time spent up to now is        6.6 secs

     Computing kpt #:    67
     total cpu time spent up to now is        6.7 secs

     Computing kpt #:    68
     total cpu time spent up to now is        6.8 secs

     Computing kpt #:    69
     total cpu time spent up to now is        6.9 secs

     Computing kpt #:    70
     total cpu time spent up to now is        7.0 secs

     Computing kpt #:    71
     total cpu time spent up to now is        7.2 secs

     Computing kpt #:    72
     total cpu time spent up to now is        7.5 secs

     Computing kpt #:    73
     total cpu time spent up to now is        7.6 secs

     Computing kpt #:    74
     total cpu time spent up to now is        7.7 secs

     Computing kpt #:    75
     total cpu time spent up to now is        7.7 secs

     Computing kpt #:    76
     total cpu time spent up to now is        7.8 secs

     Computing kpt #:    77
     total cpu time spent up to now is        7.9 secs

     Computing kpt #:    78
     total cpu time spent up to now is        8.0 secs

     Computing kpt #:    79
     total cpu time spent up to now is        8.0 secs

     Computing kpt #:    80
     total cpu time spent up to now is        8.1 secs

     Computing kpt #:    81
     total cpu time spent up to now is        8.2 secs

     Computing kpt #:    82
     total cpu time spent up to now is        8.2 secs

     Computing kpt #:    83
     total cpu time spent up to now is        8.4 secs

     Computing kpt #:    84
     total cpu time spent up to now is        8.5 secs

     Computing kpt #:    85
     total cpu time spent up to now is        8.6 secs

     Computing kpt #:    86
     total cpu time spent up to now is        8.7 secs

     Computing kpt #:    87
     total cpu time spent up to now is        8.7 secs

     Computing kpt #:    88
     total cpu time spent up to now is        8.8 secs

     Computing kpt #:    89
     total cpu time spent up to now is        8.9 secs

     Computing kpt #:    90
     total cpu time spent up to now is        8.9 secs

     Computing kpt #:    91
     total cpu time spent up to now is        9.0 secs

     Computing kpt #:    92
     total cpu time spent up to now is        9.1 secs

     Computing kpt #:    93
     total cpu time spent up to now is        9.2 secs

     Computing kpt #:    94
     total cpu time spent up to now is        9.2 secs

     Computing kpt #:    95
     total cpu time spent up to now is        9.4 secs

     Computing kpt #:    96
     total cpu time spent up to now is        9.5 secs

     Computing kpt #:    97
     total cpu time spent up to now is        9.6 secs

     Computing kpt #:    98
     total cpu time spent up to now is        9.6 secs

     Computing kpt #:    99
     total cpu time spent up to now is        9.7 secs

     Computing kpt #:   100
     total cpu time spent up to now is        9.8 secs

     Computing kpt #:   101
     total cpu time spent up to now is        9.8 secs

     Computing kpt #:   102
     total cpu time spent up to now is        9.9 secs

     Computing kpt #:   103
     total cpu time spent up to now is       10.0 secs

     Computing kpt #:   104
     total cpu time spent up to now is       10.1 secs

     Computing kpt #:   105
     total cpu time spent up to now is       10.2 secs

     Computing kpt #:   106
     total cpu time spent up to now is       10.2 secs

     Computing kpt #:   107
     total cpu time spent up to now is       10.3 secs

     Computing kpt #:   108
     total cpu time spent up to now is       10.4 secs

     Computing kpt #:   109
     total cpu time spent up to now is       10.4 secs

     Computing kpt #:   110
     total cpu time spent up to now is       10.5 secs

     Computing kpt #:   111
     total cpu time spent up to now is       10.6 secs

     Computing kpt #:   112
     total cpu time spent up to now is       10.6 secs

     Computing kpt #:   113
     total cpu time spent up to now is       10.7 secs

     Computing kpt #:   114
     total cpu time spent up to now is       10.8 secs

     Computing kpt #:   115
     total cpu time spent up to now is       10.8 secs

     Computing kpt #:   116
     total cpu time spent up to now is       10.9 secs

     Computing kpt #:   117
     total cpu time spent up to now is       11.0 secs

     Computing kpt #:   118
     total cpu time spent up to now is       11.1 secs

     Computing kpt #:   119
     total cpu time spent up to now is       11.1 secs

     Computing kpt #:   120
     total cpu time spent up to now is       11.2 secs

     Computing kpt #:   121
     total cpu time spent up to now is       11.2 secs

     ethr =  1.25E-08,  avg # of iterations = 15.4

     total cpu time spent up to now is       11.3 secs

     End of band structure calculation

          k = 0.0238 0.0412-0.0556 (  3384 PWs)   bands (ev):

   -22.0313 -10.3758  -5.7640  -5.6915   0.5687

     occupation numbers 
     1.0000   1.0000   1.0000   1.0000   0.0000

          k = 0.0238 0.0962-0.0556 (  3366 PWs)   bands (ev):

   -21.8980 -10.2125  -6.2831  -5.9743   0.7509

     occupation numbers 
     1.0000   1.0000   1.0000   1.0000   0.0000

          k = 0.0238 0.1512-0.0556 (  3370 PWs)   bands (ev):

   -21.6596  -9.9218  -7.1392  -6.4193   1.0788

     occupation numbers 
     1.0000   1.0000   1.0000   1.0000   0.0000

          k = 0.0238 0.2062-0.0556 (  3350 PWs)   bands (ev):

   -21.3141  -9.5008  -8.2077  -6.9378   1.5523

     occupation numbers 
     1.0000   1.0000   1.0000   1.0000   0.0000

          k = 0.0238 0.2612-0.0556 (  3352 PWs)   bands (ev):

   -20.8664  -9.4086  -8.9624  -7.4618   2.1708

     occupation numbers 
     1.0000   1.0000   1.0000   1.0000   0.0000

          k = 0.0238 0.3162-0.0556 (  3348 PWs)   bands (ev):

   -20.3154 -10.6657  -8.3076  -7.9535   2.9333

     occupation numbers 
     1.0000   1.0000   1.0000   1.0000   0.0000

          k = 0.0238 0.3712-0.0556 (  3340 PWs)   bands (ev):

   -19.6641 -11.9303  -8.3759  -7.5516   2.7439

     occupation numbers 
     1.0000   1.0000   1.0000   1.0000   0.0000

          k = 0.0238 0.4261-0.0556 (  3342 PWs)   bands (ev):

   -18.9181 -13.1698  -8.7095  -6.7215   1.3947

     occupation numbers 
     1.0000   1.0000   1.0000   1.0000   0.0000

          k = 0.0238 0.4811-0.0556 (  3366 PWs)   bands (ev):

   -18.0871 -14.3510  -8.9603  -5.8850   0.1707

     occupation numbers 
     1.0000   1.0000   1.0000   1.0000   0.0000

          k = 0.0238 0.5361-0.0556 (  3348 PWs)   bands (ev):

   -17.2029 -15.4205  -9.0939  -5.2012  -0.7341

     occupation numbers 
     1.0000   1.0000   1.0000   1.0000   0.0000

          k = 0.0238-0.5636-0.0556 (  3358 PWs)   bands (ev):

   -16.8267 -15.8389  -9.1258  -5.0247  -0.9572

     occupation numbers 
     1.0000   1.0000   1.0000   1.0000   0.0000

          k = 0.0238-0.5086-0.0556 (  3364 PWs)   bands (ev):

   -17.6457 -14.9091  -9.0395  -5.5064  -0.3410

     occupation numbers 
     1.0000   1.0000   1.0000   1.0000   0.0000

          k = 0.0238-0.4536-0.0556 (  3356 PWs)   bands (ev):

   -18.5127 -13.7694  -8.8478  -6.2979   0.7576

     occupation numbers 
     1.0000   1.0000   1.0000   1.0000   0.0000

          k = 0.0238-0.3986-0.0556 (  3340 PWs)   bands (ev):

   -19.3023 -12.5546  -8.5544  -7.1425   2.0615

     occupation numbers 
     1.0000   1.0000   1.0000   1.0000   0.0000

          k = 0.0238-0.3437-0.0556 (  3344 PWs)   bands (ev):

   -20.0019 -11.2990  -8.1747  -7.9412   3.4205

     occupation numbers 
     1.0000   1.0000   1.0000   1.0000   0.0000

          k = 0.0238-0.2887-0.0556 (  3354 PWs)   bands (ev):

   -20.6034 -10.0335  -8.6483  -7.7174   2.5342

     occupation numbers 
     1.0000   1.0000   1.0000   1.0000   0.0000

          k = 0.0238-0.2337-0.0556 (  3356 PWs)   bands (ev):

   -21.1034  -9.2465  -8.7983  -7.2037   1.8435

     occupation numbers 
     1.0000   1.0000   1.0000   1.0000   0.0000

          k = 0.0238-0.1787-0.0556 (  3360 PWs)   bands (ev):

   -21.5000  -9.7267  -7.6526  -6.6729   1.2974

     occupation numbers 
     1.0000   1.0000   1.0000   1.0000   0.0000

          k = 0.0238-0.1237-0.0556 (  3364 PWs)   bands (ev):

   -21.7918 -10.0833  -6.6763  -6.1819   0.8966

     occupation numbers 
     1.0000   1.0000   1.0000   1.0000   0.0000

          k = 0.0238-0.0687-0.0556 (  3366 PWs)   bands (ev):

   -21.9777 -10.3101  -5.9692  -5.8083   0.6416

     occupation numbers 
     1.0000   1.0000   1.0000   1.0000   0.0000

          k = 0.0238-0.0137-0.0556 (  3390 PWs)   bands (ev):

   -22.0579 -10.4082  -5.6571  -5.6313   0.5323

     occupation numbers 
     1.0000   1.0000   1.0000   1.0000   0.0000

          k = 0.0714 0.1237-0.0556 (  3380 PWs)   bands (ev):

   -21.7128  -9.9863  -6.9089  -6.3921   1.0060

     occupation numbers 
     1.0000   1.0000   1.0000   1.0000   0.0000

          k = 0.0714 0.1787-0.0556 (  3370 PWs)   bands (ev):

   -21.4212  -9.6317  -7.7854  -6.9340   1.4069

     occupation numbers 
     1.0000   1.0000   1.0000   1.0000   0.0000

          k = 0.0714 0.2337-0.0556 (  3360 PWs)   bands (ev):

   -21.0246  -9.1516  -8.8566  -7.5008   1.9531

     occupation numbers 
     1.0000   1.0000   1.0000   1.0000   0.0000

          k = 0.0714 0.2887-0.0556 (  3356 PWs)   bands (ev):

   -20.5255 -10.0423  -8.5545  -8.0391   2.6439

     occupation numbers 
     1.0000   1.0000   1.0000   1.0000   0.0000

          k = 0.0714 0.3437-0.0556 (  3342 PWs)   bands (ev):

   -19.9236 -11.2748  -8.5142  -7.8475   3.3501

     occupation numbers 
     1.0000   1.0000   1.0000   1.0000   0.0000

          k = 0.0714 0.3986-0.0556 (  3356 PWs)   bands (ev):

   -19.2276 -12.5119  -8.9034  -7.0536   2.0088

     occupation numbers 
     1.0000   1.0000   1.0000   1.0000   0.0000

          k = 0.0714 0.4536-0.0556 (  3362 PWs)   bands (ev):

   -18.4381 -13.7135  -9.1991  -6.2061   0.7255

     occupation numbers 
     1.0000   1.0000   1.0000   1.0000   0.0000

          k = 0.0714 0.5086-0.0556 (  3348 PWs)   bands (ev):

   -17.5727 -14.8425  -9.3868  -5.4098  -0.3589

     occupation numbers 
     1.0000   1.0000   1.0000   1.0000   0.0000

          k = 0.0714 0.5636-0.0556 (  3344 PWs)   bands (ev):

   -16.7569 -15.7685  -9.4757  -4.9223  -0.9714

     occupation numbers 
     1.0000   1.0000   1.0000   1.0000   0.0000

          k = 0.0714-0.5361-0.0556 (  3344 PWs)   bands (ev):

   -17.1316 -15.3575  -9.4441  -5.1013  -0.7510

     occupation numbers 
     1.0000   1.0000   1.0000   1.0000   0.0000

          k = 0.0714-0.4811-0.0556 (  3360 PWs)   bands (ev):

   -18.0124 -14.2911  -9.3092  -5.7903   0.1473

     occupation numbers 
     1.0000   1.0000   1.0000   1.0000   0.0000

          k = 0.0714-0.4261-0.0556 (  3360 PWs)   bands (ev):

   -18.8439 -13.1190  -9.0638  -6.6320   1.3528

     occupation numbers 
     1.0000   1.0000   1.0000   1.0000   0.0000

          k = 0.0714-0.3712-0.0556 (  3352 PWs)   bands (ev):

   -19.5873 -11.8967  -8.7191  -7.4599   2.6772

     occupation numbers 
     1.0000   1.0000   1.0000   1.0000   0.0000

          k = 0.0714-0.3162-0.0556 (  3348 PWs)   bands (ev):

   -20.2370 -10.6557  -8.2842  -8.2137   3.0432

     occupation numbers 
     1.0000   1.0000   1.0000   1.0000   0.0000

          k = 0.0714-0.2612-0.0556 (  3356 PWs)   bands (ev):

   -20.7875  -9.4374  -8.8676  -7.7765   2.2806

     occupation numbers 
     1.0000   1.0000   1.0000   1.0000   0.0000

          k = 0.0714-0.2062-0.0556 (  3366 PWs)   bands (ev):

   -21.2361  -9.4068  -8.3034  -7.2183   1.6618

     occupation numbers 
     1.0000   1.0000   1.0000   1.0000   0.0000

          k = 0.0714-0.1512-0.0556 (  3368 PWs)   bands (ev):

   -21.5797  -9.8236  -7.3195  -6.6517   1.1882

     occupation numbers 
     1.0000   1.0000   1.0000   1.0000   0.0000

          k = 0.0714-0.0962-0.0556 (  3366 PWs)   bands (ev):

   -21.8184 -10.1154  -6.5589  -6.1556   0.8602

     occupation numbers 
     1.0000   1.0000   1.0000   1.0000   0.0000

          k = 0.0714-0.0412-0.0556 (  3374 PWs)   bands (ev):

   -21.9515 -10.2777  -6.0843  -5.8617   0.6780

     occupation numbers 
     1.0000   1.0000   1.0000   1.0000   0.0000

          k = 0.1190 0.2062-0.0556 (  3370 PWs)   bands (ev):

   -21.0772  -9.2165  -8.5914  -7.6034   1.8806

     occupation numbers 
     1.0000   1.0000   1.0000   1.0000   0.0000

          k = 0.1190 0.2612-0.0556 (  3356 PWs)   bands (ev):

   -20.6300  -9.5590  -8.6774  -8.2737   2.4994

     occupation numbers 
     1.0000   1.0000   1.0000   1.0000   0.0000

          k = 0.1190 0.3162-0.0556 (  3338 PWs)   bands (ev):

   -20.0805 -10.6635  -8.8471  -8.0264   3.2621

     occupation numbers 
     1.0000   1.0000   1.0000   1.0000   0.0000

          k = 0.1190 0.3712-0.0556 (  3354 PWs)   bands (ev):

   -19.4340 -11.8437  -9.3212  -7.2753   2.5290

     occupation numbers 
     1.0000   1.0000   1.0000   1.0000   0.0000

          k = 0.1190 0.4261-0.0556 (  3362 PWs)   bands (ev):

   -18.6925 -13.0273  -9.6840  -6.4488   1.2555

     occupation numbers 
     1.0000   1.0000   1.0000   1.0000   0.0000

          k = 0.1190 0.4811-0.0556 (  3350 PWs)   bands (ev):

   -17.8649 -14.1727  -9.9343  -5.6043   0.0863

     occupation numbers 
     1.0000   1.0000   1.0000   1.0000   0.0000

          k = 0.1190 0.5361-0.0556 (  3336 PWs)   bands (ev):

   -16.9895 -15.2267 -10.0711  -4.9062  -0.8004

     occupation numbers 
     1.0000   1.0000   1.0000   1.0000   0.0000

          k = 0.1190 0.5911-0.0556 (  3332 PWs)   bands (ev):

   -16.6196 -15.6296 -10.1025  -4.7245  -1.0209

     occupation numbers 
     1.0000   1.0000   1.0000   1.0000   0.0000

          k = 0.1190-0.5086-0.0556 (  3340 PWs)   bands (ev):

   -17.4276 -14.7165 -10.0167  -5.2191  -0.4111

     occupation numbers 
     1.0000   1.0000   1.0000   1.0000   0.0000

          k = 0.1190-0.4536-0.0556 (  3356 PWs)   bands (ev):

   -18.2880 -13.6069  -9.8239  -6.0215   0.6495

     occupation numbers 
     1.0000   1.0000   1.0000   1.0000   0.0000

          k = 0.1190-0.3986-0.0556 (  3354 PWs)   bands (ev):

   -19.0743 -12.4372  -9.5145  -6.8688   1.8881

     occupation numbers 
     1.0000   1.0000   1.0000   1.0000   0.0000

          k = 0.1190-0.3437-0.0556 (  3338 PWs)   bands (ev):

   -19.7685 -11.2485  -9.0971  -7.6600   3.1725

     occupation numbers 
     1.0000   1.0000   1.0000   1.0000   0.0000

          k = 0.1190-0.2887-0.0556 (  3350 PWs)   bands (ev):

   -20.3680 -10.0981  -8.5744  -8.3657   2.8628

     occupation numbers 
     1.0000   1.0000   1.0000   1.0000   0.0000

          k = 0.1190-0.2337-0.0556 (  3360 PWs)   bands (ev):

   -20.8661  -9.0533  -8.9613  -7.9478   2.1720

     occupation numbers 
     1.0000   1.0000   1.0000   1.0000   0.0000

          k = 0.1190-0.1787-0.0556 (  3360 PWs)   bands (ev):

   -21.2618  -9.4379  -8.1671  -7.2575   1.6256

     occupation numbers 
     1.0000   1.0000   1.0000   1.0000   0.0000

          k = 0.1190-0.1237-0.0556 (  3374 PWs)   bands (ev):

   -21.5537  -9.7928  -7.4445  -6.6479   1.2246

     occupation numbers 
     1.0000   1.0000   1.0000   1.0000   0.0000

          k = 0.1190-0.0687-0.0556 (  3370 PWs)   bands (ev):

   -21.7396 -10.0207  -6.8757  -6.2646   0.9694

     occupation numbers 
     1.0000   1.0000   1.0000   1.0000   0.0000

          k = 0.1667 0.2887-0.0556 (  3352 PWs)   bands (ev):

   -20.1330 -10.3489  -9.0864  -8.0872   3.1900

     occupation numbers 
     1.0000   1.0000   1.0000   1.0000   0.0000

          k = 0.1667 0.3437-0.0556 (  3366 PWs)   bands (ev):

   -19.5382 -11.2953  -9.7685  -7.3893   2.8379

     occupation numbers 
     1.0000   1.0000   1.0000   1.0000   0.0000

          k = 0.1667 0.3986-0.0556 (  3354 PWs)   bands (ev):

   -18.8460 -12.3562 -10.2662  -6.6004   1.6564

     occupation numbers 
     1.0000   1.0000   1.0000   1.0000   0.0000

          k = 0.1667 0.4536-0.0556 (  3346 PWs)   bands (ev):

   -18.0644 -13.4632 -10.6099  -5.7537   0.4960

     occupation numbers 
     1.0000   1.0000   1.0000   1.0000   0.0000

          k = 0.1667 0.5086-0.0556 (  3336 PWs)   bands (ev):

   -17.2115 -14.5364 -10.8221  -4.9404  -0.5279

     occupation numbers 
     1.0000   1.0000   1.0000   1.0000   0.0000

          k = 0.1667 0.5636-0.0556 (  3316 PWs)   bands (ev):

   -16.4143 -15.4292 -10.9069  -4.4260  -1.1350

     occupation numbers 
     1.0000   1.0000   1.0000   1.0000   0.0000

          k = 0.1667 0.6186-0.0556 (  3336 PWs)   bands (ev):

   -16.7782 -15.0366 -10.8831  -4.6180  -0.9141

     occupation numbers 
     1.0000   1.0000   1.0000   1.0000   0.0000

          k = 0.1667-0.4811-0.0556 (  3352 PWs)   bands (ev):

   -17.6451 -14.0100 -10.7335  -5.3349  -0.0446

     occupation numbers 
     1.0000   1.0000   1.0000   1.0000   0.0000

          k = 0.1667-0.4261-0.0556 (  3356 PWs)   bands (ev):

   -18.4655 -12.9103 -10.4572  -6.1805   1.0661

     occupation numbers 
     1.0000   1.0000   1.0000   1.0000   0.0000

          k = 0.1667-0.3712-0.0556 (  3364 PWs)   bands (ev):

   -19.2044 -11.8152 -10.0383  -7.0058   2.2472

     occupation numbers 
     1.0000   1.0000   1.0000   1.0000   0.0000

          k = 0.1667-0.3162-0.0556 (  3348 PWs)   bands (ev):

   -19.8466 -10.8003  -9.4503  -7.7495   3.4205

     occupation numbers 
     1.0000   1.0000   1.0000   1.0000   0.0000

          k = 0.1667-0.2612-0.0556 (  3352 PWs)   bands (ev):

   -20.3946  -9.9379  -8.6868  -8.3962   2.8267

     occupation numbers 
     1.0000   1.0000   1.0000   1.0000   0.0000

          k = 0.1667-0.2062-0.0556 (  3360 PWs)   bands (ev):

   -20.8402  -9.2011  -8.9300  -7.8700   2.2081

     occupation numbers 
     1.0000   1.0000   1.0000   1.0000   0.0000

          k = 0.1667-0.1512-0.0556 (  3354 PWs)   bands (ev):

   -21.1826  -9.3424  -8.5246  -7.1840   1.7345

     occupation numbers 
     1.0000   1.0000   1.0000   1.0000   0.0000

          k = 0.1667-0.0962-0.0556 (  3358 PWs)   bands (ev):

   -21.4204  -9.6299  -7.9168  -6.7668   1.4066

     occupation numbers 
     1.0000   1.0000   1.0000   1.0000   0.0000

          k = 0.2143 0.3712-0.0556 (  3366 PWs)   bands (ev):

   -18.8985 -11.9913 -10.6175  -6.6512   1.8084

     occupation numbers 
     1.0000   1.0000   1.0000   1.0000   0.0000

          k = 0.2143 0.4261-0.0556 (  3358 PWs)   bands (ev):

   -18.1659 -12.8515 -11.2240  -5.8346   0.7446

     occupation numbers 
     1.0000   1.0000   1.0000   1.0000   0.0000

          k = 0.2143 0.4811-0.0556 (  3320 PWs)   bands (ev):

   -17.3519 -13.8257 -11.5845  -4.9811  -0.2787

     occupation numbers 
     1.0000   1.0000   1.0000   1.0000   0.0000

          k = 0.2143 0.5361-0.0556 (  3328 PWs)   bands (ev):

   -16.4992 -14.8020 -11.7661  -4.2431  -1.1279

     occupation numbers 
     1.0000   1.0000   1.0000   1.0000   0.0000

          k = 0.2143 0.5911-0.0556 (  3324 PWs)   bands (ev):

   -16.1420 -15.1836 -11.8010  -4.0351  -1.3567

     occupation numbers 
     1.0000   1.0000   1.0000   1.0000   0.0000

          k = 0.2143 0.6461-0.0556 (  3330 PWs)   bands (ev):

   -16.9248 -14.3269 -11.6966  -4.5819  -0.7446

     occupation numbers 
     1.0000   1.0000   1.0000   1.0000   0.0000

          k = 0.2143-0.4536-0.0556 (  3344 PWs)   bands (ev):

   -17.7678 -13.3318 -11.4300  -5.4082   0.2229

     occupation numbers 
     1.0000   1.0000   1.0000   1.0000   0.0000

          k = 0.2143-0.3986-0.0556 (  3356 PWs)   bands (ev):

   -18.5427 -12.3997 -10.9528  -6.2506   1.2801

     occupation numbers 
     1.0000   1.0000   1.0000   1.0000   0.0000

          k = 0.2143-0.3437-0.0556 (  3362 PWs)   bands (ev):

   -19.2295 -11.6268 -10.2140  -7.0308   2.3270

     occupation numbers 
     1.0000   1.0000   1.0000   1.0000   0.0000

          k = 0.2143-0.2887-0.0556 (  3348 PWs)   bands (ev):

   -19.8210 -10.9767  -9.3044  -7.7209   3.3341

     occupation numbers 
     1.0000   1.0000   1.0000   1.0000   0.0000

          k = 0.2143-0.2337-0.0556 (  3342 PWs)   bands (ev):

   -20.3153 -10.3520  -8.4212  -8.3048   2.9350

     occupation numbers 
     1.0000   1.0000   1.0000   1.0000   0.0000

          k = 0.2143-0.1787-0.0556 (  3356 PWs)   bands (ev):

   -20.7086  -9.7258  -8.7729  -7.7180   2.3892

     occupation numbers 
     1.0000   1.0000   1.0000   1.0000   0.0000

          k = 0.2143-0.1237-0.0556 (  3352 PWs)   bands (ev):

   -20.9983  -9.1196  -9.0957  -7.2941   1.9889

     occupation numbers 
     1.0000   1.0000   1.0000   1.0000   0.0000

          k = 0.2619 0.4536-0.0556 (  3336 PWs)   bands (ev):

   -17.4007 -13.4181 -12.0213  -5.0003  -0.1790

     occupation numbers 
     1.0000   1.0000   1.0000   1.0000   0.0000

          k = 0.2619 0.5086-0.0556 (  3312 PWs)   bands (ev):

   -16.5732 -14.1688 -12.4869  -4.1611  -1.0772

     occupation numbers 
     1.0000   1.0000   1.0000   1.0000   0.0000

          k = 0.2619 0.5636-0.0556 (  3312 PWs)   bands (ev):

   -15.8045 -14.9378 -12.6636  -3.5488  -1.7125

     occupation numbers 
     1.0000   1.0000   1.0000   0.9995   0.0010

          k = 0.2619 0.6186-0.0556 (  3316 PWs)   bands (ev):

   -16.1558 -14.5853 -12.6073  -3.7929  -1.4624

     occupation numbers 
     1.0000   1.0000   1.0000   1.0000   0.0000

          k = 0.2619 0.6736-0.0556 (  3320 PWs)   bands (ev):

   -16.9918 -13.7690 -12.2983  -4.5747  -0.6378

     occupation numbers 
     1.0000   1.0000   1.0000   1.0000   0.0000

          k = 0.2619-0.4261-0.0556 (  3348 PWs)   bands (ev):

   -17.7929 -13.1167 -11.6554  -5.4239   0.2842

     occupation numbers 
     1.0000   1.0000   1.0000   1.0000   0.0000

          k = 0.2619-0.3712-0.0556 (  3352 PWs)   bands (ev):

   -18.5168 -12.6016 -10.7513  -6.2272   1.2054

     occupation numbers 
     1.0000   1.0000   1.0000   1.0000   0.0000

          k = 0.2619-0.3162-0.0556 (  3354 PWs)   bands (ev):

   -19.1525 -12.1044  -9.7826  -6.9504   2.0979

     occupation numbers 
     1.0000   1.0000   1.0000   1.0000   0.0000

          k = 0.2619-0.2612-0.0556 (  3336 PWs)   bands (ev):

   -19.6903 -11.5641  -8.8895  -7.5737   2.9490

     occupation numbers 
     1.0000   1.0000   1.0000   1.0000   0.0000

          k = 0.2619-0.2062-0.0556 (  3342 PWs)   bands (ev):

   -20.1319 -10.9752  -8.1946  -8.0918   3.1876

     occupation numbers 
     1.0000   1.0000   1.0000   1.0000   0.0000

          k = 0.2619-0.1512-0.0556 (  3348 PWs)   bands (ev):

   -20.4723 -10.3494  -8.4933  -7.7930   2.7155

     occupation numbers 
     1.0000   1.0000   1.0000   1.0000   0.0000

          k = 0.3095 0.5361-0.0556 (  3294 PWs)   bands (ev):

   -15.7660 -14.6076 -13.1247  -3.3333  -1.8728

     occupation numbers 
     1.0000   1.0000   1.0000   0.9943   0.0057

          k = 0.3095 0.5911-0.0556 (  3298 PWs)   bands (ev):

   -15.4113 -14.8788 -13.2626  -2.9928  -2.2097

     occupation numbers 
     1.0000   1.0000   1.0000   0.9117   0.0866

          k = 0.3095 0.6461-0.0556 (  3306 PWs)   bands (ev):

   -16.1680 -14.3664 -12.8591  -3.7416  -1.4791

     occupation numbers 
     1.0000   1.0000   1.0000   1.0000   0.0000

          k = 0.3095 0.7011-0.0556 (  3310 PWs)   bands (ev):

   -16.9689 -13.9952 -12.0516  -4.5748  -0.6754

     occupation numbers 
     1.0000   1.0000   1.0000   1.0000   0.0000

          k = 0.3095-0.3986-0.0556 (  3342 PWs)   bands (ev):

   -17.7186 -13.6544 -11.0992  -5.3769   0.1123

     occupation numbers 
     1.0000   1.0000   1.0000   1.0000   0.0000

          k = 0.3095-0.3437-0.0556 (  3350 PWs)   bands (ev):

   -18.3893 -13.2530 -10.1339  -6.1113   0.8774

     occupation numbers 
     1.0000   1.0000   1.0000   1.0000   0.0000

          k = 0.3095-0.2887-0.0556 (  3352 PWs)   bands (ev):

   -18.9716 -12.7779  -9.2680  -6.7628   1.6348

     occupation numbers 
     1.0000   1.0000   1.0000   1.0000   0.0000

          k = 0.3095-0.2337-0.0556 (  3350 PWs)   bands (ev):

   -19.4578 -12.2299  -8.6007  -7.3159   2.3785

     occupation numbers 
     1.0000   1.0000   1.0000   1.0000   0.0000

          k = 0.3095-0.1787-0.0556 (  3344 PWs)   bands (ev):

   -19.8461 -11.6183  -8.2331  -7.7617   3.0931

     occupation numbers 
     1.0000   1.0000   1.0000   1.0000   0.0000

          k = 0.3571 0.6186-0.0556 (  3302 PWs)   bands (ev):

   -15.5422 -14.9297 -13.0312  -3.2305  -1.9927

     occupation numbers 
     1.0000   1.0000   1.0000   0.9852   0.0173

          k = 0.3571 0.6736-0.0556 (  3314 PWs)   bands (ev):

   -16.1391 -14.8893 -12.2276  -3.8914  -1.4208

     occupation numbers 
     1.0000   1.0000   1.0000   1.0000   0.0000

          k = 0.3571 0.7286-0.0556 (  3328 PWs)   bands (ev):

   -16.8595 -14.6833 -11.2929  -4.5940  -0.8276

     occupation numbers 
     1.0000   1.0000   1.0000   1.0000   0.0000

          k = 0.3571-0.3712-0.0556 (  3342 PWs)   bands (ev):

   -17.5469 -14.3667 -10.3663  -5.2791  -0.2227

     occupation numbers 
     1.0000   1.0000   1.0000   1.0000   0.0000

          k = 0.3571-0.3162-0.0556 (  3354 PWs)   bands (ev):

   -18.1618 -13.9554  -9.5406  -5.9133   0.4017

     occupation numbers 
     1.0000   1.0000   1.0000   1.0000   0.0000

          k = 0.3571-0.2612-0.0556 (  3358 PWs)   bands (ev):

   -18.6905 -13.4525  -8.9193  -6.4757   1.0582

     occupation numbers 
     1.0000   1.0000   1.0000   1.0000   0.0000

          k = 0.3571-0.2062-0.0556 (  3342 PWs)   bands (ev):

   -19.1226 -12.8679  -8.5929  -6.9446   1.7315

     occupation numbers 
     1.0000   1.0000   1.0000   1.0000   0.0000

          k = 0.4048 0.7011-0.0556 (  3322 PWs)   bands (ev):

   -16.2182 -15.3814 -11.3535  -4.2173  -1.2609

     occupation numbers 
     1.0000   1.0000   1.0000   1.0000   0.0000

          k = 0.4048 0.7561-0.0556 (  3332 PWs)   bands (ev):

   -16.6897 -15.3620 -10.4784  -4.6603  -0.9818

     occupation numbers 
     1.0000   1.0000   1.0000   1.0000   0.0000

          k = 0.4048-0.3437-0.0556 (  3350 PWs)   bands (ev):

   -17.2875 -15.0510  -9.7082  -5.1589  -0.5936

     occupation numbers 
     1.0000   1.0000   1.0000   1.0000   0.0000

          k = 0.4048-0.2887-0.0556 (  3364 PWs)   bands (ev):

   -17.8405 -14.6096  -9.1368  -5.6539  -0.1043

     occupation numbers 
     1.0000   1.0000   1.0000   1.0000   0.0000

          k = 0.4048-0.2337-0.0556 (  3362 PWs)   bands (ev):

   -18.3112 -14.0713  -8.8580  -6.1016   0.4583

     occupation numbers 
     1.0000   1.0000   1.0000   1.0000   0.0000

          k = 0.4524 0.7835-0.0556 (  3342 PWs)   bands (ev):

   -16.6254 -15.7834  -9.7625  -4.8120  -1.0205

     occupation numbers 
     1.0000   1.0000   1.0000   1.0000   0.0000

          k = 0.4524-0.3162-0.0556 (  3350 PWs)   bands (ev):

   -16.9692 -15.6279  -9.2495  -5.0550  -0.8757

     occupation numbers 
     1.0000   1.0000   1.0000   1.0000   0.0000

          k = 0.4524-0.2612-0.0556 (  3358 PWs)   bands (ev):

   -17.4312 -15.1814  -9.0268  -5.3516  -0.5534

     occupation numbers 
     1.0000   1.0000   1.0000   1.0000   0.0000

          k =-0.5000-0.8660-0.0556 (  3360 PWs)   bands (ev):

   -16.7626 -15.9262  -9.0807  -5.0165  -0.9843

     occupation numbers 
     1.0000   1.0000   1.0000   1.0000   0.0000

     the Fermi energy is    -2.6029 ev

     Writing output data file Grafene.save/

     init_run     :      0.08s CPU      0.11s WALL (       1 calls)
     electrons    :     10.63s CPU     11.04s WALL (       1 calls)

     Called by init_run:
     wfcinit      :      0.00s CPU      0.00s WALL (       1 calls)
     wfcinit:atom :      0.05s CPU      0.06s WALL (     121 calls)
     wfcinit:wfcr :      1.26s CPU      1.34s WALL (     121 calls)
     potinit      :      0.01s CPU      0.03s WALL (       1 calls)
     hinit0       :      0.05s CPU      0.06s WALL (       1 calls)

     Called by electrons:
     c_bands      :     10.63s CPU     11.02s WALL (       1 calls)
     v_of_rho     :      0.01s CPU      0.01s WALL (       1 calls)
     v_h          :      0.00s CPU      0.00s WALL (       1 calls)
     v_xc         :      0.00s CPU      0.01s WALL (       1 calls)

     Called by c_bands:
     init_us_2    :      0.01s CPU      0.01s WALL (     121 calls)
     cegterg      :      9.17s CPU      9.43s WALL (     162 calls)

     Called by sum_band:

     Called by *egterg:
     h_psi        :      8.88s CPU      9.32s WALL (    2151 calls)
     g_psi        :      0.08s CPU      0.08s WALL (    1868 calls)
     cdiaghg      :      0.15s CPU      0.15s WALL (    1989 calls)
     cegterg:over :      0.49s CPU      0.50s WALL (    1868 calls)
     cegterg:upda :      0.46s CPU      0.42s WALL (    1868 calls)
     cegterg:last :      0.21s CPU      0.15s WALL (     450 calls)

     Called by h_psi:
     h_psi:pot    :      8.85s CPU      9.28s WALL (    2151 calls)
     h_psi:calbec :      0.08s CPU      0.08s WALL (    2151 calls)
     vloc_psi     :      8.65s CPU      9.06s WALL (    2151 calls)
     add_vuspsi   :      0.12s CPU      0.13s WALL (    2151 calls)

     General routines
     calbec       :      0.07s CPU      0.08s WALL (    2151 calls)
     fft          :      0.00s CPU      0.01s WALL (       3 calls)
     fftw         :      7.57s CPU      7.97s WALL (   14340 calls)
     davcio       :      0.00s CPU      0.08s WALL (     242 calls)


     PWSCF        :     10.80s CPU     11.54s WALL


   This run was terminated on:  16:40:32   3May2021            

=------------------------------------------------------------------------------=
   JOB DONE.
=------------------------------------------------------------------------------=
