10
	Energy:      32.5376008
N          2.35756        0.26815       -8.46372
C          1.29444        0.14487       -7.64867
C          1.71998        0.02919       -6.34135
C          3.09852        0.08514       -6.36955
C          3.45956        0.23273       -7.69295
H          2.33211        0.37207       -9.50217
H          0.26588        0.13919       -7.98462
H          1.09519       -0.08335       -5.46548
H          3.76561        0.02502       -5.52010
H          4.47063        0.30983       -8.07062
