
     Program PWSCF v.6.4.1 starts on  3May2021 at 16:57:57 

     This program is part of the open-source Quantum ESPRESSO suite
     for quantum simulation of materials; please cite
         "P. Giannozzi et al., J. Phys.:Condens. Matter 21 395502 (2009);
         "P. Giannozzi et al., J. Phys.:Condens. Matter 29 465901 (2017);
          URL http://www.quantum-espresso.org", 
     in publications or presentations arising from this work. More details at
     http://www.quantum-espresso.org/quote

     Serial version
     Waiting for input...
     Reading input from standard input

     Current dimensions of program PWSCF are:
     Max number of different atomic species (ntypx) = 10
     Max number of k-points (npk) =  40000
     Max angular momentum in pseudopotentials (lmaxx) =  3

     Atomic positions and unit cell read from directory:
     ./tmp/Grafene.save/


     G-vector sticks info
     --------------------
     sticks:   dense  smooth     PW     G-vecs:    dense   smooth      PW
     Sum         241     241     85                26869    26869    5995



     bravais-lattice index     =            4
     lattice parameter (alat)  =       4.6500  a.u.
     unit-cell volume          =     783.6678 (a.u.)^3
     number of atoms/cell      =            2
     number of atomic types    =            1
     number of electrons       =         8.00
     number of Kohn-Sham states=           20
     kinetic-energy cutoff     =      40.0000  Ry
     charge density cutoff     =     160.0000  Ry
     Exchange-correlation      =  SLA  PZ   NOGX NOGC ( 1  1  0  0 0 0)

     celldm(1)=   4.650000  celldm(2)=   0.000000  celldm(3)=   9.000000
     celldm(4)=   0.000000  celldm(5)=   0.000000  celldm(6)=   0.000000

     crystal axes: (cart. coord. in units of alat)
               a(1) = (   1.000000   0.000000   0.000000 )  
               a(2) = (  -0.500000   0.866025   0.000000 )  
               a(3) = (   0.000000   0.000000   9.000000 )  

     reciprocal axes: (cart. coord. in units 2 pi/alat)
               b(1) = (  1.000000  0.577350 -0.000000 )  
               b(2) = (  0.000000  1.154701  0.000000 )  
               b(3) = (  0.000000 -0.000000  0.111111 )  


     PseudoPot. # 1 for C  read from file:
     ../../pseudo/C.pz-vbc.UPF
     MD5 check sum: ab53dd623bfeb79c5a7b057bc96eae20
     Pseudo is Norm-conserving, Zval =  4.0
     Generated by new atomic code, or converted to UPF format
     Using radial grid of  269 points,  1 beta functions with: 
                l(1) =   0

     atomic species   valence    mass     pseudopotential
        C              4.00    12.01070     C ( 1.00)

     24 Sym. Ops., with inversion, found


                                    s                        frac. trans.

      isym =  1     identity                                     

 cryst.   s( 1) = (     1          0          0      )
                  (     0          1          0      )
                  (     0          0          1      )

 cart.    s( 1) = (  1.0000000  0.0000000  0.0000000 )
                  (  0.0000000  1.0000000  0.0000000 )
                  (  0.0000000  0.0000000  1.0000000 )


      isym =  2     180 deg rotation - cart. axis [0,0,1]        

 cryst.   s( 2) = (    -1          0          0      )
                  (     0         -1          0      )
                  (     0          0          1      )

 cart.    s( 2) = ( -1.0000000  0.0000000  0.0000000 )
                  (  0.0000000 -1.0000000  0.0000000 )
                  (  0.0000000  0.0000000  1.0000000 )


      isym =  3     180 deg rotation - cart. axis [0,1,0]        

 cryst.   s( 3) = (    -1          0          0      )
                  (     1          1          0      )
                  (     0          0         -1      )

 cart.    s( 3) = ( -1.0000000  0.0000000  0.0000000 )
                  (  0.0000000  1.0000000  0.0000000 )
                  (  0.0000000  0.0000000 -1.0000000 )


      isym =  4     180 deg rotation - cart. axis [1,0,0]        

 cryst.   s( 4) = (     1          0          0      )
                  (    -1         -1          0      )
                  (     0          0         -1      )

 cart.    s( 4) = (  1.0000000  0.0000000  0.0000000 )
                  (  0.0000000 -1.0000000  0.0000000 )
                  (  0.0000000  0.0000000 -1.0000000 )


      isym =  5      60 deg rotation - cryst. axis [0,0,1]       

 cryst.   s( 5) = (     1          1          0      )
                  (    -1          0          0      )
                  (     0          0          1      )

 cart.    s( 5) = (  0.5000000 -0.8660254  0.0000000 )
                  (  0.8660254  0.5000000  0.0000000 )
                  (  0.0000000  0.0000000  1.0000000 )


      isym =  6      60 deg rotation - cryst. axis [0,0,-1]      

 cryst.   s( 6) = (     0         -1          0      )
                  (     1          1          0      )
                  (     0          0          1      )

 cart.    s( 6) = (  0.5000000  0.8660254  0.0000000 )
                  ( -0.8660254  0.5000000  0.0000000 )
                  (  0.0000000  0.0000000  1.0000000 )


      isym =  7     120 deg rotation - cryst. axis [0,0,1]       

 cryst.   s( 7) = (     0          1          0      )
                  (    -1         -1          0      )
                  (     0          0          1      )

 cart.    s( 7) = ( -0.5000000 -0.8660254  0.0000000 )
                  (  0.8660254 -0.5000000  0.0000000 )
                  (  0.0000000  0.0000000  1.0000000 )


      isym =  8     120 deg rotation - cryst. axis [0,0,-1]      

 cryst.   s( 8) = (    -1         -1          0      )
                  (     1          0          0      )
                  (     0          0          1      )

 cart.    s( 8) = ( -0.5000000  0.8660254  0.0000000 )
                  ( -0.8660254 -0.5000000  0.0000000 )
                  (  0.0000000  0.0000000  1.0000000 )


      isym =  9     180 deg rotation - cryst. axis [1,-1,0]      

 cryst.   s( 9) = (     0         -1          0      )
                  (    -1          0          0      )
                  (     0          0         -1      )

 cart.    s( 9) = (  0.5000000 -0.8660254  0.0000000 )
                  ( -0.8660254 -0.5000000  0.0000000 )
                  (  0.0000000  0.0000000 -1.0000000 )


      isym = 10     180 deg rotation - cryst. axis [2,1,0]       

 cryst.   s(10) = (     1          1          0      )
                  (     0         -1          0      )
                  (     0          0         -1      )

 cart.    s(10) = (  0.5000000  0.8660254  0.0000000 )
                  (  0.8660254 -0.5000000  0.0000000 )
                  (  0.0000000  0.0000000 -1.0000000 )


      isym = 11     180 deg rotation - cryst. axis [0,1,0]       

 cryst.   s(11) = (    -1         -1          0      )
                  (     0          1          0      )
                  (     0          0         -1      )

 cart.    s(11) = ( -0.5000000 -0.8660254  0.0000000 )
                  ( -0.8660254  0.5000000  0.0000000 )
                  (  0.0000000  0.0000000 -1.0000000 )


      isym = 12     180 deg rotation - cryst. axis [1,1,0]       

 cryst.   s(12) = (     0          1          0      )
                  (     1          0          0      )
                  (     0          0         -1      )

 cart.    s(12) = ( -0.5000000  0.8660254  0.0000000 )
                  (  0.8660254  0.5000000  0.0000000 )
                  (  0.0000000  0.0000000 -1.0000000 )


      isym = 13     inversion                                    

 cryst.   s(13) = (    -1          0          0      )
                  (     0         -1          0      )
                  (     0          0         -1      )

 cart.    s(13) = ( -1.0000000  0.0000000  0.0000000 )
                  (  0.0000000 -1.0000000  0.0000000 )
                  (  0.0000000  0.0000000 -1.0000000 )


      isym = 14     inv. 180 deg rotation - cart. axis [0,0,1]   

 cryst.   s(14) = (     1          0          0      )
                  (     0          1          0      )
                  (     0          0         -1      )

 cart.    s(14) = (  1.0000000  0.0000000  0.0000000 )
                  (  0.0000000  1.0000000  0.0000000 )
                  (  0.0000000  0.0000000 -1.0000000 )


      isym = 15     inv. 180 deg rotation - cart. axis [0,1,0]   

 cryst.   s(15) = (     1          0          0      )
                  (    -1         -1          0      )
                  (     0          0          1      )

 cart.    s(15) = (  1.0000000  0.0000000  0.0000000 )
                  (  0.0000000 -1.0000000  0.0000000 )
                  (  0.0000000  0.0000000  1.0000000 )


      isym = 16     inv. 180 deg rotation - cart. axis [1,0,0]   

 cryst.   s(16) = (    -1          0          0      )
                  (     1          1          0      )
                  (     0          0          1      )

 cart.    s(16) = ( -1.0000000  0.0000000  0.0000000 )
                  (  0.0000000  1.0000000  0.0000000 )
                  (  0.0000000  0.0000000  1.0000000 )


      isym = 17     inv.  60 deg rotation - cryst. axis [0,0,1]  

 cryst.   s(17) = (    -1         -1          0      )
                  (     1          0          0      )
                  (     0          0         -1      )

 cart.    s(17) = ( -0.5000000  0.8660254  0.0000000 )
                  ( -0.8660254 -0.5000000  0.0000000 )
                  (  0.0000000  0.0000000 -1.0000000 )


      isym = 18     inv.  60 deg rotation - cryst. axis [0,0,-1] 

 cryst.   s(18) = (     0          1          0      )
                  (    -1         -1          0      )
                  (     0          0         -1      )

 cart.    s(18) = ( -0.5000000 -0.8660254  0.0000000 )
                  (  0.8660254 -0.5000000  0.0000000 )
                  (  0.0000000  0.0000000 -1.0000000 )


      isym = 19     inv. 120 deg rotation - cryst. axis [0,0,1]  

 cryst.   s(19) = (     0         -1          0      )
                  (     1          1          0      )
                  (     0          0         -1      )

 cart.    s(19) = (  0.5000000  0.8660254  0.0000000 )
                  ( -0.8660254  0.5000000  0.0000000 )
                  (  0.0000000  0.0000000 -1.0000000 )


      isym = 20     inv. 120 deg rotation - cryst. axis [0,0,-1] 

 cryst.   s(20) = (     1          1          0      )
                  (    -1          0          0      )
                  (     0          0         -1      )

 cart.    s(20) = (  0.5000000 -0.8660254  0.0000000 )
                  (  0.8660254  0.5000000  0.0000000 )
                  (  0.0000000  0.0000000 -1.0000000 )


      isym = 21     inv. 180 deg rotation - cryst. axis [1,-1,0] 

 cryst.   s(21) = (     0          1          0      )
                  (     1          0          0      )
                  (     0          0          1      )

 cart.    s(21) = ( -0.5000000  0.8660254  0.0000000 )
                  (  0.8660254  0.5000000  0.0000000 )
                  (  0.0000000  0.0000000  1.0000000 )


      isym = 22     inv. 180 deg rotation - cryst. axis [2,1,0]  

 cryst.   s(22) = (    -1         -1          0      )
                  (     0          1          0      )
                  (     0          0          1      )

 cart.    s(22) = ( -0.5000000 -0.8660254  0.0000000 )
                  ( -0.8660254  0.5000000  0.0000000 )
                  (  0.0000000  0.0000000  1.0000000 )


      isym = 23     inv. 180 deg rotation - cryst. axis [0,1,0]  

 cryst.   s(23) = (     1          1          0      )
                  (     0         -1          0      )
                  (     0          0          1      )

 cart.    s(23) = (  0.5000000  0.8660254  0.0000000 )
                  (  0.8660254 -0.5000000  0.0000000 )
                  (  0.0000000  0.0000000  1.0000000 )


      isym = 24     inv. 180 deg rotation - cryst. axis [1,1,0]  

 cryst.   s(24) = (     0         -1          0      )
                  (    -1          0          0      )
                  (     0          0          1      )

 cart.    s(24) = (  0.5000000 -0.8660254  0.0000000 )
                  ( -0.8660254 -0.5000000  0.0000000 )
                  (  0.0000000  0.0000000  1.0000000 )


     point group D_6h(6/mmm)
     there are 12 classes
     the character table:

       E     2C6   2C3   C2    3C2'  3C2'' i     2S3   2S6   s_h   3s_d  3s_v 
A_1g   1.00  1.00  1.00  1.00  1.00  1.00  1.00  1.00  1.00  1.00  1.00  1.00
A_2g   1.00  1.00  1.00  1.00 -1.00 -1.00  1.00  1.00  1.00  1.00 -1.00 -1.00
B_1g   1.00 -1.00  1.00 -1.00  1.00 -1.00  1.00 -1.00  1.00 -1.00  1.00 -1.00
B_2g   1.00 -1.00  1.00 -1.00 -1.00  1.00  1.00 -1.00  1.00 -1.00 -1.00  1.00
E_1g   2.00  1.00 -1.00 -2.00  0.00  0.00  2.00  1.00 -1.00 -2.00  0.00  0.00
E_2g   2.00 -1.00 -1.00  2.00  0.00  0.00  2.00 -1.00 -1.00  2.00  0.00  0.00
A_1u   1.00  1.00  1.00  1.00  1.00  1.00 -1.00 -1.00 -1.00 -1.00 -1.00 -1.00
A_2u   1.00  1.00  1.00  1.00 -1.00 -1.00 -1.00 -1.00 -1.00 -1.00  1.00  1.00
B_1u   1.00 -1.00  1.00 -1.00  1.00 -1.00 -1.00  1.00 -1.00  1.00 -1.00  1.00
B_2u   1.00 -1.00  1.00 -1.00 -1.00  1.00 -1.00  1.00 -1.00  1.00  1.00 -1.00
E_1u   2.00  1.00 -1.00 -2.00  0.00  0.00 -2.00 -1.00  1.00  2.00  0.00  0.00
E_2u   2.00 -1.00 -1.00  2.00  0.00  0.00 -2.00  1.00  1.00 -2.00  0.00  0.00

     the symmetry operations in each class and the name of the first element:

     E        1
          identity                                               
     2C6      5    6
           60 deg rotation - cryst. axis [0,0,1]                 
     2C3      7    8
          120 deg rotation - cryst. axis [0,0,1]                 
     C2       2
          180 deg rotation - cart. axis [0,0,1]                  
     3C2'     4   12   11
          180 deg rotation - cart. axis [1,0,0]                  
     3C2''    3    9   10
          180 deg rotation - cart. axis [0,1,0]                  
     i       13
          inversion                                              
     2S3     17   18
          inv.  60 deg rotation - cryst. axis [0,0,1]            
     2S6     19   20
          inv. 120 deg rotation - cryst. axis [0,0,1]            
     s_h     14
          inv. 180 deg rotation - cart. axis [0,0,1]             
     3s_d    16   24   23
          inv. 180 deg rotation - cart. axis [1,0,0]             
     3s_v    15   21   22
          inv. 180 deg rotation - cart. axis [0,1,0]             

   Cartesian axes

     site n.     atom                  positions (alat units)
         1           C   tau(   1) = (   0.0000000   0.5773503   0.0000000  )
         2           C   tau(   2) = (   0.5000000   0.2886751   0.0000000  )

   Crystallographic axes

     site n.     atom                  positions (cryst. coord.)
         1           C   tau(   1) = (  0.3333334  0.6666667  0.0000000  )
         2           C   tau(   2) = (  0.6666666  0.3333333  0.0000000  )

     number of k points=   121  gaussian smearing, width (Ry)=  0.0300
                       cart. coord. in units 2pi/alat
        k(    1) = (   0.0238095   0.0412393  -0.0555556), wk =   0.0090703
        k(    2) = (   0.0238095   0.0962250  -0.0555556), wk =   0.0181406
        k(    3) = (   0.0238095   0.1512108  -0.0555556), wk =   0.0181406
        k(    4) = (   0.0238095   0.2061965  -0.0555556), wk =   0.0181406
        k(    5) = (   0.0238095   0.2611823  -0.0555556), wk =   0.0181406
        k(    6) = (   0.0238095   0.3161680  -0.0555556), wk =   0.0181406
        k(    7) = (   0.0238095   0.3711537  -0.0555556), wk =   0.0181406
        k(    8) = (   0.0238095   0.4261395  -0.0555556), wk =   0.0181406
        k(    9) = (   0.0238095   0.4811252  -0.0555556), wk =   0.0181406
        k(   10) = (   0.0238095   0.5361110  -0.0555556), wk =   0.0181406
        k(   11) = (   0.0238095  -0.5636038  -0.0555556), wk =   0.0181406
        k(   12) = (   0.0238095  -0.5086181  -0.0555556), wk =   0.0181406
        k(   13) = (   0.0238095  -0.4536324  -0.0555556), wk =   0.0181406
        k(   14) = (   0.0238095  -0.3986466  -0.0555556), wk =   0.0181406
        k(   15) = (   0.0238095  -0.3436609  -0.0555556), wk =   0.0181406
        k(   16) = (   0.0238095  -0.2886751  -0.0555556), wk =   0.0181406
        k(   17) = (   0.0238095  -0.2336894  -0.0555556), wk =   0.0181406
        k(   18) = (   0.0238095  -0.1787037  -0.0555556), wk =   0.0181406
        k(   19) = (   0.0238095  -0.1237179  -0.0555556), wk =   0.0181406
        k(   20) = (   0.0238095  -0.0687322  -0.0555556), wk =   0.0181406
        k(   21) = (   0.0238095  -0.0137464  -0.0555556), wk =   0.0090703
        k(   22) = (   0.0714286   0.1237179  -0.0555556), wk =   0.0090703
        k(   23) = (   0.0714286   0.1787037  -0.0555556), wk =   0.0181406
        k(   24) = (   0.0714286   0.2336894  -0.0555556), wk =   0.0181406
        k(   25) = (   0.0714286   0.2886751  -0.0555556), wk =   0.0181406
        k(   26) = (   0.0714286   0.3436609  -0.0555556), wk =   0.0181406
        k(   27) = (   0.0714286   0.3986466  -0.0555556), wk =   0.0181406
        k(   28) = (   0.0714286   0.4536324  -0.0555556), wk =   0.0181406
        k(   29) = (   0.0714286   0.5086181  -0.0555556), wk =   0.0181406
        k(   30) = (   0.0714286   0.5636038  -0.0555556), wk =   0.0181406
        k(   31) = (   0.0714286  -0.5361110  -0.0555556), wk =   0.0181406
        k(   32) = (   0.0714286  -0.4811252  -0.0555556), wk =   0.0181406
        k(   33) = (   0.0714286  -0.4261395  -0.0555556), wk =   0.0181406
        k(   34) = (   0.0714286  -0.3711537  -0.0555556), wk =   0.0181406
        k(   35) = (   0.0714286  -0.3161680  -0.0555556), wk =   0.0181406
        k(   36) = (   0.0714286  -0.2611823  -0.0555556), wk =   0.0181406
        k(   37) = (   0.0714286  -0.2061965  -0.0555556), wk =   0.0181406
        k(   38) = (   0.0714286  -0.1512108  -0.0555556), wk =   0.0181406
        k(   39) = (   0.0714286  -0.0962250  -0.0555556), wk =   0.0181406
        k(   40) = (   0.0714286  -0.0412393  -0.0555556), wk =   0.0090703
        k(   41) = (   0.1190476   0.2061965  -0.0555556), wk =   0.0090703
        k(   42) = (   0.1190476   0.2611823  -0.0555556), wk =   0.0181406
        k(   43) = (   0.1190476   0.3161680  -0.0555556), wk =   0.0181406
        k(   44) = (   0.1190476   0.3711537  -0.0555556), wk =   0.0181406
        k(   45) = (   0.1190476   0.4261395  -0.0555556), wk =   0.0181406
        k(   46) = (   0.1190476   0.4811252  -0.0555556), wk =   0.0181406
        k(   47) = (   0.1190476   0.5361110  -0.0555556), wk =   0.0181406
        k(   48) = (   0.1190476   0.5910967  -0.0555556), wk =   0.0181406
        k(   49) = (   0.1190476  -0.5086181  -0.0555556), wk =   0.0181406
        k(   50) = (   0.1190476  -0.4536324  -0.0555556), wk =   0.0181406
        k(   51) = (   0.1190476  -0.3986466  -0.0555556), wk =   0.0181406
        k(   52) = (   0.1190476  -0.3436609  -0.0555556), wk =   0.0181406
        k(   53) = (   0.1190476  -0.2886751  -0.0555556), wk =   0.0181406
        k(   54) = (   0.1190476  -0.2336894  -0.0555556), wk =   0.0181406
        k(   55) = (   0.1190476  -0.1787037  -0.0555556), wk =   0.0181406
        k(   56) = (   0.1190476  -0.1237179  -0.0555556), wk =   0.0181406
        k(   57) = (   0.1190476  -0.0687322  -0.0555556), wk =   0.0090703
        k(   58) = (   0.1666667   0.2886751  -0.0555556), wk =   0.0090703
        k(   59) = (   0.1666667   0.3436609  -0.0555556), wk =   0.0181406
        k(   60) = (   0.1666667   0.3986466  -0.0555556), wk =   0.0181406
        k(   61) = (   0.1666667   0.4536324  -0.0555556), wk =   0.0181406
        k(   62) = (   0.1666667   0.5086181  -0.0555556), wk =   0.0181406
        k(   63) = (   0.1666667   0.5636038  -0.0555556), wk =   0.0181406
        k(   64) = (   0.1666667   0.6185896  -0.0555556), wk =   0.0181406
        k(   65) = (   0.1666667  -0.4811252  -0.0555556), wk =   0.0181406
        k(   66) = (   0.1666667  -0.4261395  -0.0555556), wk =   0.0181406
        k(   67) = (   0.1666667  -0.3711537  -0.0555556), wk =   0.0181406
        k(   68) = (   0.1666667  -0.3161680  -0.0555556), wk =   0.0181406
        k(   69) = (   0.1666667  -0.2611823  -0.0555556), wk =   0.0181406
        k(   70) = (   0.1666667  -0.2061965  -0.0555556), wk =   0.0181406
        k(   71) = (   0.1666667  -0.1512108  -0.0555556), wk =   0.0181406
        k(   72) = (   0.1666667  -0.0962250  -0.0555556), wk =   0.0090703
        k(   73) = (   0.2142857   0.3711537  -0.0555556), wk =   0.0090703
        k(   74) = (   0.2142857   0.4261395  -0.0555556), wk =   0.0181406
        k(   75) = (   0.2142857   0.4811252  -0.0555556), wk =   0.0181406
        k(   76) = (   0.2142857   0.5361110  -0.0555556), wk =   0.0181406
        k(   77) = (   0.2142857   0.5910967  -0.0555556), wk =   0.0181406
        k(   78) = (   0.2142857   0.6460824  -0.0555556), wk =   0.0181406
        k(   79) = (   0.2142857  -0.4536324  -0.0555556), wk =   0.0181406
        k(   80) = (   0.2142857  -0.3986466  -0.0555556), wk =   0.0181406
        k(   81) = (   0.2142857  -0.3436609  -0.0555556), wk =   0.0181406
        k(   82) = (   0.2142857  -0.2886751  -0.0555556), wk =   0.0181406
        k(   83) = (   0.2142857  -0.2336894  -0.0555556), wk =   0.0181406
        k(   84) = (   0.2142857  -0.1787037  -0.0555556), wk =   0.0181406
        k(   85) = (   0.2142857  -0.1237179  -0.0555556), wk =   0.0090703
        k(   86) = (   0.2619048   0.4536324  -0.0555556), wk =   0.0090703
        k(   87) = (   0.2619048   0.5086181  -0.0555556), wk =   0.0181406
        k(   88) = (   0.2619048   0.5636038  -0.0555556), wk =   0.0181406
        k(   89) = (   0.2619048   0.6185896  -0.0555556), wk =   0.0181406
        k(   90) = (   0.2619048   0.6735753  -0.0555556), wk =   0.0181406
        k(   91) = (   0.2619048  -0.4261395  -0.0555556), wk =   0.0181406
        k(   92) = (   0.2619048  -0.3711537  -0.0555556), wk =   0.0181406
        k(   93) = (   0.2619048  -0.3161680  -0.0555556), wk =   0.0181406
        k(   94) = (   0.2619048  -0.2611823  -0.0555556), wk =   0.0181406
        k(   95) = (   0.2619048  -0.2061965  -0.0555556), wk =   0.0181406
        k(   96) = (   0.2619048  -0.1512108  -0.0555556), wk =   0.0090703
        k(   97) = (   0.3095238   0.5361110  -0.0555556), wk =   0.0090703
        k(   98) = (   0.3095238   0.5910967  -0.0555556), wk =   0.0181406
        k(   99) = (   0.3095238   0.6460824  -0.0555556), wk =   0.0181406
        k(  100) = (   0.3095238   0.7010682  -0.0555556), wk =   0.0181406
        k(  101) = (   0.3095238  -0.3986466  -0.0555556), wk =   0.0181406
        k(  102) = (   0.3095238  -0.3436609  -0.0555556), wk =   0.0181406
        k(  103) = (   0.3095238  -0.2886751  -0.0555556), wk =   0.0181406
        k(  104) = (   0.3095238  -0.2336894  -0.0555556), wk =   0.0181406
        k(  105) = (   0.3095238  -0.1787037  -0.0555556), wk =   0.0090703
        k(  106) = (   0.3571429   0.6185896  -0.0555556), wk =   0.0090703
        k(  107) = (   0.3571429   0.6735753  -0.0555556), wk =   0.0181406
        k(  108) = (   0.3571429   0.7285611  -0.0555556), wk =   0.0181406
        k(  109) = (   0.3571429  -0.3711537  -0.0555556), wk =   0.0181406
        k(  110) = (   0.3571429  -0.3161680  -0.0555556), wk =   0.0181406
        k(  111) = (   0.3571429  -0.2611823  -0.0555556), wk =   0.0181406
        k(  112) = (   0.3571429  -0.2061965  -0.0555556), wk =   0.0090703
        k(  113) = (   0.4047619   0.7010682  -0.0555556), wk =   0.0090703
        k(  114) = (   0.4047619   0.7560539  -0.0555556), wk =   0.0181406
        k(  115) = (   0.4047619  -0.3436609  -0.0555556), wk =   0.0181406
        k(  116) = (   0.4047619  -0.2886751  -0.0555556), wk =   0.0181406
        k(  117) = (   0.4047619  -0.2336894  -0.0555556), wk =   0.0090703
        k(  118) = (   0.4523810   0.7835468  -0.0555556), wk =   0.0090703
        k(  119) = (   0.4523810  -0.3161680  -0.0555556), wk =   0.0181406
        k(  120) = (   0.4523810  -0.2611823  -0.0555556), wk =   0.0090703
        k(  121) = (  -0.5000000  -0.8660254  -0.0555556), wk =   0.0045351

                       cryst. coord.
        k(    1) = (   0.0238095   0.0238095  -0.5000000), wk =   0.0090703
        k(    2) = (   0.0238095   0.0714286  -0.5000000), wk =   0.0181406
        k(    3) = (   0.0238095   0.1190476  -0.5000000), wk =   0.0181406
        k(    4) = (   0.0238095   0.1666667  -0.5000000), wk =   0.0181406
        k(    5) = (   0.0238095   0.2142857  -0.5000000), wk =   0.0181406
        k(    6) = (   0.0238095   0.2619048  -0.5000000), wk =   0.0181406
        k(    7) = (   0.0238095   0.3095238  -0.5000000), wk =   0.0181406
        k(    8) = (   0.0238095   0.3571429  -0.5000000), wk =   0.0181406
        k(    9) = (   0.0238095   0.4047619  -0.5000000), wk =   0.0181406
        k(   10) = (   0.0238095   0.4523810  -0.5000000), wk =   0.0181406
        k(   11) = (   0.0238095  -0.5000000  -0.5000000), wk =   0.0181406
        k(   12) = (   0.0238095  -0.4523810  -0.5000000), wk =   0.0181406
        k(   13) = (   0.0238095  -0.4047619  -0.5000000), wk =   0.0181406
        k(   14) = (   0.0238095  -0.3571429  -0.5000000), wk =   0.0181406
        k(   15) = (   0.0238095  -0.3095238  -0.5000000), wk =   0.0181406
        k(   16) = (   0.0238095  -0.2619048  -0.5000000), wk =   0.0181406
        k(   17) = (   0.0238095  -0.2142857  -0.5000000), wk =   0.0181406
        k(   18) = (   0.0238095  -0.1666667  -0.5000000), wk =   0.0181406
        k(   19) = (   0.0238095  -0.1190476  -0.5000000), wk =   0.0181406
        k(   20) = (   0.0238095  -0.0714286  -0.5000000), wk =   0.0181406
        k(   21) = (   0.0238095  -0.0238095  -0.5000000), wk =   0.0090703
        k(   22) = (   0.0714286   0.0714286  -0.5000000), wk =   0.0090703
        k(   23) = (   0.0714286   0.1190476  -0.5000000), wk =   0.0181406
        k(   24) = (   0.0714286   0.1666667  -0.5000000), wk =   0.0181406
        k(   25) = (   0.0714286   0.2142857  -0.5000000), wk =   0.0181406
        k(   26) = (   0.0714286   0.2619048  -0.5000000), wk =   0.0181406
        k(   27) = (   0.0714286   0.3095238  -0.5000000), wk =   0.0181406
        k(   28) = (   0.0714286   0.3571429  -0.5000000), wk =   0.0181406
        k(   29) = (   0.0714286   0.4047619  -0.5000000), wk =   0.0181406
        k(   30) = (   0.0714286   0.4523810  -0.5000000), wk =   0.0181406
        k(   31) = (   0.0714286  -0.5000000  -0.5000000), wk =   0.0181406
        k(   32) = (   0.0714286  -0.4523810  -0.5000000), wk =   0.0181406
        k(   33) = (   0.0714286  -0.4047619  -0.5000000), wk =   0.0181406
        k(   34) = (   0.0714286  -0.3571429  -0.5000000), wk =   0.0181406
        k(   35) = (   0.0714286  -0.3095238  -0.5000000), wk =   0.0181406
        k(   36) = (   0.0714286  -0.2619048  -0.5000000), wk =   0.0181406
        k(   37) = (   0.0714286  -0.2142857  -0.5000000), wk =   0.0181406
        k(   38) = (   0.0714286  -0.1666667  -0.5000000), wk =   0.0181406
        k(   39) = (   0.0714286  -0.1190476  -0.5000000), wk =   0.0181406
        k(   40) = (   0.0714286  -0.0714286  -0.5000000), wk =   0.0090703
        k(   41) = (   0.1190476   0.1190476  -0.5000000), wk =   0.0090703
        k(   42) = (   0.1190476   0.1666667  -0.5000000), wk =   0.0181406
        k(   43) = (   0.1190476   0.2142857  -0.5000000), wk =   0.0181406
        k(   44) = (   0.1190476   0.2619048  -0.5000000), wk =   0.0181406
        k(   45) = (   0.1190476   0.3095238  -0.5000000), wk =   0.0181406
        k(   46) = (   0.1190476   0.3571429  -0.5000000), wk =   0.0181406
        k(   47) = (   0.1190476   0.4047619  -0.5000000), wk =   0.0181406
        k(   48) = (   0.1190476   0.4523810  -0.5000000), wk =   0.0181406
        k(   49) = (   0.1190476  -0.5000000  -0.5000000), wk =   0.0181406
        k(   50) = (   0.1190476  -0.4523810  -0.5000000), wk =   0.0181406
        k(   51) = (   0.1190476  -0.4047619  -0.5000000), wk =   0.0181406
        k(   52) = (   0.1190476  -0.3571429  -0.5000000), wk =   0.0181406
        k(   53) = (   0.1190476  -0.3095238  -0.5000000), wk =   0.0181406
        k(   54) = (   0.1190476  -0.2619048  -0.5000000), wk =   0.0181406
        k(   55) = (   0.1190476  -0.2142857  -0.5000000), wk =   0.0181406
        k(   56) = (   0.1190476  -0.1666667  -0.5000000), wk =   0.0181406
        k(   57) = (   0.1190476  -0.1190476  -0.5000000), wk =   0.0090703
        k(   58) = (   0.1666667   0.1666667  -0.5000000), wk =   0.0090703
        k(   59) = (   0.1666667   0.2142857  -0.5000000), wk =   0.0181406
        k(   60) = (   0.1666667   0.2619048  -0.5000000), wk =   0.0181406
        k(   61) = (   0.1666667   0.3095238  -0.5000000), wk =   0.0181406
        k(   62) = (   0.1666667   0.3571429  -0.5000000), wk =   0.0181406
        k(   63) = (   0.1666667   0.4047619  -0.5000000), wk =   0.0181406
        k(   64) = (   0.1666667   0.4523810  -0.5000000), wk =   0.0181406
        k(   65) = (   0.1666667  -0.5000000  -0.5000000), wk =   0.0181406
        k(   66) = (   0.1666667  -0.4523810  -0.5000000), wk =   0.0181406
        k(   67) = (   0.1666667  -0.4047619  -0.5000000), wk =   0.0181406
        k(   68) = (   0.1666667  -0.3571429  -0.5000000), wk =   0.0181406
        k(   69) = (   0.1666667  -0.3095238  -0.5000000), wk =   0.0181406
        k(   70) = (   0.1666667  -0.2619048  -0.5000000), wk =   0.0181406
        k(   71) = (   0.1666667  -0.2142857  -0.5000000), wk =   0.0181406
        k(   72) = (   0.1666667  -0.1666667  -0.5000000), wk =   0.0090703
        k(   73) = (   0.2142857   0.2142857  -0.5000000), wk =   0.0090703
        k(   74) = (   0.2142857   0.2619048  -0.5000000), wk =   0.0181406
        k(   75) = (   0.2142857   0.3095238  -0.5000000), wk =   0.0181406
        k(   76) = (   0.2142857   0.3571429  -0.5000000), wk =   0.0181406
        k(   77) = (   0.2142857   0.4047619  -0.5000000), wk =   0.0181406
        k(   78) = (   0.2142857   0.4523810  -0.5000000), wk =   0.0181406
        k(   79) = (   0.2142857  -0.5000000  -0.5000000), wk =   0.0181406
        k(   80) = (   0.2142857  -0.4523810  -0.5000000), wk =   0.0181406
        k(   81) = (   0.2142857  -0.4047619  -0.5000000), wk =   0.0181406
        k(   82) = (   0.2142857  -0.3571429  -0.5000000), wk =   0.0181406
        k(   83) = (   0.2142857  -0.3095238  -0.5000000), wk =   0.0181406
        k(   84) = (   0.2142857  -0.2619048  -0.5000000), wk =   0.0181406
        k(   85) = (   0.2142857  -0.2142857  -0.5000000), wk =   0.0090703
        k(   86) = (   0.2619048   0.2619048  -0.5000000), wk =   0.0090703
        k(   87) = (   0.2619048   0.3095238  -0.5000000), wk =   0.0181406
        k(   88) = (   0.2619048   0.3571429  -0.5000000), wk =   0.0181406
        k(   89) = (   0.2619048   0.4047619  -0.5000000), wk =   0.0181406
        k(   90) = (   0.2619048   0.4523810  -0.5000000), wk =   0.0181406
        k(   91) = (   0.2619048  -0.5000000  -0.5000000), wk =   0.0181406
        k(   92) = (   0.2619048  -0.4523810  -0.5000000), wk =   0.0181406
        k(   93) = (   0.2619048  -0.4047619  -0.5000000), wk =   0.0181406
        k(   94) = (   0.2619048  -0.3571429  -0.5000000), wk =   0.0181406
        k(   95) = (   0.2619048  -0.3095238  -0.5000000), wk =   0.0181406
        k(   96) = (   0.2619048  -0.2619048  -0.5000000), wk =   0.0090703
        k(   97) = (   0.3095238   0.3095238  -0.5000000), wk =   0.0090703
        k(   98) = (   0.3095238   0.3571429  -0.5000000), wk =   0.0181406
        k(   99) = (   0.3095238   0.4047619  -0.5000000), wk =   0.0181406
        k(  100) = (   0.3095238   0.4523810  -0.5000000), wk =   0.0181406
        k(  101) = (   0.3095238  -0.5000000  -0.5000000), wk =   0.0181406
        k(  102) = (   0.3095238  -0.4523810  -0.5000000), wk =   0.0181406
        k(  103) = (   0.3095238  -0.4047619  -0.5000000), wk =   0.0181406
        k(  104) = (   0.3095238  -0.3571429  -0.5000000), wk =   0.0181406
        k(  105) = (   0.3095238  -0.3095238  -0.5000000), wk =   0.0090703
        k(  106) = (   0.3571429   0.3571429  -0.5000000), wk =   0.0090703
        k(  107) = (   0.3571429   0.4047619  -0.5000000), wk =   0.0181406
        k(  108) = (   0.3571429   0.4523810  -0.5000000), wk =   0.0181406
        k(  109) = (   0.3571429  -0.5000000  -0.5000000), wk =   0.0181406
        k(  110) = (   0.3571429  -0.4523810  -0.5000000), wk =   0.0181406
        k(  111) = (   0.3571429  -0.4047619  -0.5000000), wk =   0.0181406
        k(  112) = (   0.3571429  -0.3571429  -0.5000000), wk =   0.0090703
        k(  113) = (   0.4047619   0.4047619  -0.5000000), wk =   0.0090703
        k(  114) = (   0.4047619   0.4523810  -0.5000000), wk =   0.0181406
        k(  115) = (   0.4047619  -0.5000000  -0.5000000), wk =   0.0181406
        k(  116) = (   0.4047619  -0.4523810  -0.5000000), wk =   0.0181406
        k(  117) = (   0.4047619  -0.4047619  -0.5000000), wk =   0.0090703
        k(  118) = (   0.4523810   0.4523810  -0.5000000), wk =   0.0090703
        k(  119) = (   0.4523810  -0.5000000  -0.5000000), wk =   0.0181406
        k(  120) = (   0.4523810  -0.4523810  -0.5000000), wk =   0.0090703
        k(  121) = (  -0.5000000  -0.5000000  -0.5000000), wk =   0.0045351

     Dense  grid:    26869 G-vectors     FFT dimensions: (  20,  20, 180)

     Dynamical RAM for                 wfc:       1.02 MB

     Dynamical RAM for     wfc (w. buffer):       1.02 MB

     Dynamical RAM for           str. fact:       0.41 MB

     Dynamical RAM for           local pot:       0.00 MB

     Dynamical RAM for          nlocal pot:       0.10 MB

     Dynamical RAM for                qrad:       0.01 MB

     Dynamical RAM for          rho,v,vnew:       2.88 MB

     Dynamical RAM for           G-vectors:       1.74 MB

     Dynamical RAM for          h,s,v(r/c):       0.29 MB

     Dynamical RAM for          <psi|beta>:       0.00 MB

     Dynamical RAM for                 psi:       4.09 MB

     Dynamical RAM for                hpsi:       4.09 MB

     Dynamical RAM for      wfcinit/wfcrot:       2.05 MB

     Estimated static dynamical RAM per process >       9.73 MB

     Estimated max dynamical RAM per process >      18.20 MB

     The potential is recalculated from file :
     ./tmp/Grafene.save/charge-density


     negative rho (up, down):  1.167E-03 0.000E+00
     Starting wfcs are    8 randomized atomic wfcs +   12 random wfcs

     Band Structure Calculation
     Davidson diagonalization with overlap

     Computing kpt #:     1
     total cpu time spent up to now is        0.6 secs

     Computing kpt #:     2
     total cpu time spent up to now is        0.9 secs

     Computing kpt #:     3
     total cpu time spent up to now is        1.5 secs

     Computing kpt #:     4
     total cpu time spent up to now is        1.8 secs

     Computing kpt #:     5
     total cpu time spent up to now is        2.2 secs

     Computing kpt #:     6
     total cpu time spent up to now is        2.6 secs

     Computing kpt #:     7
     total cpu time spent up to now is        3.0 secs

     Computing kpt #:     8
     total cpu time spent up to now is        3.5 secs

     Computing kpt #:     9
     total cpu time spent up to now is        4.0 secs

     Computing kpt #:    10
     total cpu time spent up to now is        4.3 secs

     Computing kpt #:    11
     total cpu time spent up to now is        4.9 secs

     Computing kpt #:    12
     total cpu time spent up to now is        5.3 secs

     Computing kpt #:    13
     total cpu time spent up to now is        5.7 secs

     Computing kpt #:    14
     total cpu time spent up to now is        6.1 secs

     Computing kpt #:    15
     total cpu time spent up to now is        6.8 secs

     Computing kpt #:    16
     total cpu time spent up to now is        7.2 secs

     Computing kpt #:    17
     total cpu time spent up to now is        7.5 secs

     Computing kpt #:    18
     total cpu time spent up to now is        7.8 secs

     Computing kpt #:    19
     total cpu time spent up to now is        8.1 secs

     Computing kpt #:    20
     total cpu time spent up to now is        8.5 secs

     Computing kpt #:    21
     total cpu time spent up to now is        8.8 secs

     Computing kpt #:    22
     total cpu time spent up to now is        9.1 secs

     Computing kpt #:    23
     total cpu time spent up to now is        9.4 secs

     Computing kpt #:    24
     total cpu time spent up to now is        9.7 secs

     Computing kpt #:    25
     total cpu time spent up to now is       10.1 secs

     Computing kpt #:    26
     total cpu time spent up to now is       10.5 secs

     Computing kpt #:    27
     total cpu time spent up to now is       11.0 secs

     Computing kpt #:    28
     total cpu time spent up to now is       11.6 secs

     Computing kpt #:    29
     total cpu time spent up to now is       12.1 secs

     Computing kpt #:    30
     total cpu time spent up to now is       12.6 secs

     Computing kpt #:    31
     total cpu time spent up to now is       13.0 secs

     Computing kpt #:    32
     total cpu time spent up to now is       13.5 secs

     Computing kpt #:    33
     total cpu time spent up to now is       13.9 secs

     Computing kpt #:    34
     total cpu time spent up to now is       14.4 secs

     Computing kpt #:    35
     total cpu time spent up to now is       14.8 secs

     Computing kpt #:    36
     total cpu time spent up to now is       15.2 secs

     Computing kpt #:    37
     total cpu time spent up to now is       15.8 secs

     Computing kpt #:    38
     total cpu time spent up to now is       16.1 secs

     Computing kpt #:    39
     total cpu time spent up to now is       16.9 secs

     Computing kpt #:    40
     total cpu time spent up to now is       17.3 secs

     Computing kpt #:    41
     total cpu time spent up to now is       17.6 secs

     Computing kpt #:    42
     total cpu time spent up to now is       18.0 secs

     Computing kpt #:    43
     total cpu time spent up to now is       18.6 secs

     Computing kpt #:    44
     total cpu time spent up to now is       19.9 secs

     Computing kpt #:    45
     total cpu time spent up to now is       20.7 secs

     Computing kpt #:    46
     total cpu time spent up to now is       21.9 secs

     Computing kpt #:    47
     total cpu time spent up to now is       22.5 secs

     Computing kpt #:    48
     total cpu time spent up to now is       23.3 secs

     Computing kpt #:    49
     total cpu time spent up to now is       23.9 secs

     Computing kpt #:    50
     total cpu time spent up to now is       24.4 secs

     Computing kpt #:    51
     total cpu time spent up to now is       25.7 secs

     Computing kpt #:    52
     total cpu time spent up to now is       27.0 secs

     Computing kpt #:    53
     total cpu time spent up to now is       27.6 secs

     Computing kpt #:    54
     total cpu time spent up to now is       28.0 secs

     Computing kpt #:    55
     total cpu time spent up to now is       28.3 secs

     Computing kpt #:    56
     total cpu time spent up to now is       28.7 secs

     Computing kpt #:    57
     total cpu time spent up to now is       29.0 secs

     Computing kpt #:    58
     total cpu time spent up to now is       29.3 secs

     Computing kpt #:    59
     total cpu time spent up to now is       29.7 secs

     Computing kpt #:    60
     total cpu time spent up to now is       30.3 secs

     Computing kpt #:    61
     total cpu time spent up to now is       30.7 secs

     Computing kpt #:    62
     total cpu time spent up to now is       31.1 secs

     Computing kpt #:    63
     total cpu time spent up to now is       32.0 secs

     Computing kpt #:    64
     total cpu time spent up to now is       32.4 secs

     Computing kpt #:    65
     total cpu time spent up to now is       32.9 secs

     Computing kpt #:    66
     total cpu time spent up to now is       33.4 secs

     Computing kpt #:    67
     total cpu time spent up to now is       33.8 secs

     Computing kpt #:    68
     total cpu time spent up to now is       34.2 secs

     Computing kpt #:    69
     total cpu time spent up to now is       34.5 secs

     Computing kpt #:    70
     total cpu time spent up to now is       34.9 secs

     Computing kpt #:    71
     total cpu time spent up to now is       35.2 secs

     Computing kpt #:    72
     total cpu time spent up to now is       35.5 secs

     Computing kpt #:    73
     total cpu time spent up to now is       36.0 secs

     Computing kpt #:    74
     total cpu time spent up to now is       36.8 secs

     Computing kpt #:    75
     total cpu time spent up to now is       37.2 secs

     Computing kpt #:    76
     total cpu time spent up to now is       37.7 secs

     Computing kpt #:    77
     total cpu time spent up to now is       38.4 secs

     Computing kpt #:    78
     total cpu time spent up to now is       38.9 secs

     Computing kpt #:    79
     total cpu time spent up to now is       40.6 secs

     Computing kpt #:    80
     total cpu time spent up to now is       41.2 secs

     Computing kpt #:    81
     total cpu time spent up to now is       42.0 secs

     Computing kpt #:    82
     total cpu time spent up to now is       42.7 secs

     Computing kpt #:    83
     total cpu time spent up to now is       43.2 secs

     Computing kpt #:    84
     total cpu time spent up to now is       43.8 secs

     Computing kpt #:    85
     total cpu time spent up to now is       44.7 secs

     Computing kpt #:    86
     total cpu time spent up to now is       47.2 secs

     Computing kpt #:    87
     total cpu time spent up to now is       48.2 secs

     Computing kpt #:    88
     total cpu time spent up to now is       49.7 secs

     Computing kpt #:    89
     total cpu time spent up to now is       50.9 secs

     Computing kpt #:    90
     total cpu time spent up to now is       52.6 secs

     Computing kpt #:    91
     total cpu time spent up to now is       53.3 secs

     Computing kpt #:    92
     total cpu time spent up to now is       53.7 secs

     Computing kpt #:    93
     total cpu time spent up to now is       54.2 secs

     Computing kpt #:    94
     total cpu time spent up to now is       54.7 secs

     Computing kpt #:    95
     total cpu time spent up to now is       55.1 secs

     Computing kpt #:    96
     total cpu time spent up to now is       55.5 secs

     Computing kpt #:    97
     total cpu time spent up to now is       56.1 secs

     Computing kpt #:    98
     total cpu time spent up to now is       57.1 secs

     Computing kpt #:    99
     total cpu time spent up to now is       57.7 secs

     Computing kpt #:   100
     total cpu time spent up to now is       58.2 secs

     Computing kpt #:   101
     total cpu time spent up to now is       58.6 secs

     Computing kpt #:   102
     total cpu time spent up to now is       59.1 secs

     Computing kpt #:   103
     total cpu time spent up to now is       59.7 secs

     Computing kpt #:   104
     total cpu time spent up to now is       60.1 secs

     Computing kpt #:   105
     total cpu time spent up to now is       60.5 secs

     Computing kpt #:   106
     total cpu time spent up to now is       61.2 secs

     Computing kpt #:   107
     total cpu time spent up to now is       62.0 secs

     Computing kpt #:   108
     total cpu time spent up to now is       62.6 secs

     Computing kpt #:   109
     total cpu time spent up to now is       63.1 secs

     Computing kpt #:   110
     total cpu time spent up to now is       63.6 secs

     Computing kpt #:   111
     total cpu time spent up to now is       64.1 secs

     Computing kpt #:   112
     total cpu time spent up to now is       64.5 secs

     Computing kpt #:   113
     total cpu time spent up to now is       65.0 secs

     Computing kpt #:   114
     total cpu time spent up to now is       65.4 secs

     Computing kpt #:   115
     total cpu time spent up to now is       65.9 secs

     Computing kpt #:   116
     total cpu time spent up to now is       66.5 secs

     Computing kpt #:   117
     total cpu time spent up to now is       67.0 secs

     Computing kpt #:   118
     total cpu time spent up to now is       67.5 secs

     Computing kpt #:   119
     total cpu time spent up to now is       67.9 secs

     Computing kpt #:   120
     total cpu time spent up to now is       68.3 secs

     Computing kpt #:   121
     total cpu time spent up to now is       69.5 secs

     ethr =  1.25E-08,  avg # of iterations = 19.5

     total cpu time spent up to now is       69.5 secs

     End of band structure calculation

          k = 0.0238 0.0412-0.0556 (  3384 PWs)   bands (ev):

   -22.0313 -10.3758  -5.7640  -5.6915   0.5687   1.1956   1.6642   1.8018
     2.9320   3.3238   4.9691   5.5536   5.8421   5.9972   7.7061   8.4414
     9.2130  10.0629  11.0893  11.9642

     occupation numbers 
     1.0000   1.0000   1.0000   1.0000   0.0000   0.0000   0.0000   0.0000
     0.0000   0.0000   0.0000   0.0000   0.0000   0.0000   0.0000   0.0000
     0.0000   0.0000   0.0000   0.0000

          k = 0.0238 0.0962-0.0556 (  3366 PWs)   bands (ev):

   -21.8980 -10.2125  -6.2831  -5.9743   0.7509   1.3826   1.8500   1.9883
     3.1169   3.5090   5.1527   5.7200   5.9127   6.5650   7.8873   8.6270
     8.7200  10.3360  11.2657  12.1482

     occupation numbers 
     1.0000   1.0000   1.0000   1.0000   0.0000   0.0000   0.0000   0.0000
     0.0000   0.0000   0.0000   0.0000   0.0000   0.0000   0.0000   0.0000
     0.0000   0.0000   0.0000   0.0000

          k = 0.0238 0.1512-0.0556 (  3370 PWs)   bands (ev):

   -21.6596  -9.9218  -7.1392  -6.4193   1.0788   1.7190   2.1840   2.3241
     3.4491   3.8424   5.4823   5.8415   6.1058   7.5157   7.8891   8.2160
     8.9595  10.8615  11.5804  12.4783

     occupation numbers 
     1.0000   1.0000   1.0000   1.0000   0.0000   0.0000   0.0000   0.0000
     0.0000   0.0000   0.0000   0.0000   0.0000   0.0000   0.0000   0.0000
     0.0000   0.0000   0.0000   0.0000

          k = 0.0238 0.2062-0.0556 (  3350 PWs)   bands (ev):

   -21.3141  -9.5008  -8.2077  -6.9378   1.5523   2.2046   2.6659   2.8091
     3.9280   4.3235   5.7518   5.9533   6.5678   6.8184   8.6836   8.7645
     9.4376  11.6123  12.0297  12.9534

     occupation numbers 
     1.0000   1.0000   1.0000   1.0000   0.0000   0.0000   0.0000   0.0000
     0.0000   0.0000   0.0000   0.0000   0.0000   0.0000   0.0000   0.0000
     0.0000   0.0000   0.0000   0.0000

          k = 0.0238 0.2612-0.0556 (  3352 PWs)   bands (ev):

   -20.8664  -9.4086  -8.9624  -7.4618   2.1708   2.8382   3.2927   3.4431
     4.5441   4.9483   5.5544   5.5760   6.5934   7.1904   9.2925  10.0584
    10.2231  12.4832  12.6005  13.5720

     occupation numbers 
     1.0000   1.0000   1.0000   1.0000   0.0000   0.0000   0.0000   0.0000
     0.0000   0.0000   0.0000   0.0000   0.0000   0.0000   0.0000   0.0000
     0.0000   0.0000   0.0000   0.0000

          k = 0.0238 0.3162-0.0556 (  3348 PWs)   bands (ev):

   -20.3154 -10.6657  -8.3076  -7.9535   2.9333   3.6043   3.9767   4.2256
     4.2752   5.3403   5.3517   5.7550   7.3536   7.9624  10.0365  10.8274
    11.7904  13.2615  13.3132  14.3312

     occupation numbers 
     1.0000   1.0000   1.0000   1.0000   0.0000   0.0000   0.0000   0.0000
     0.0000   0.0000   0.0000   0.0000   0.0000   0.0000   0.0000   0.0000
     0.0000   0.0000   0.0000   0.0000

          k = 0.0238 0.3712-0.0556 (  3340 PWs)   bands (ev):

   -19.6641 -11.9303  -8.3759  -7.5516   2.7439   3.8369   4.5661   5.0162
     5.1028   5.2069   6.2603   6.6696   8.2582   8.8815  10.9023  11.7383
    13.0601  13.8636  13.9991  15.2251

     occupation numbers 
     1.0000   1.0000   1.0000   1.0000   0.0000   0.0000   0.0000   0.0000
     0.0000   0.0000   0.0000   0.0000   0.0000   0.0000   0.0000   0.0000
     0.0000   0.0000   0.0000   0.0000

          k = 0.0238 0.4261-0.0556 (  3342 PWs)   bands (ev):

   -18.9181 -13.1698  -8.7095  -6.7215   1.3947   4.8253   5.0337   5.6427
     6.0818   6.2443   7.3192   7.7417   9.2962   9.9456  11.8406  12.5425
    12.7934  13.6033  14.4549  14.7425

     occupation numbers 
     1.0000   1.0000   1.0000   1.0000   0.0000   0.0000   0.0000   0.0000
     0.0000   0.0000   0.0000   0.0000   0.0000   0.0000   0.0000   0.0000
     0.0000   0.0000   0.0000   0.0000

          k = 0.0238 0.4811-0.0556 (  3366 PWs)   bands (ev):

   -18.0871 -14.3510  -8.9603  -5.8850   0.1707   4.8309   6.0861   6.8662
     7.2926   7.4730   8.5150   8.9608  10.4407  11.1216  11.1655  12.0346
    12.5795  12.9205  13.0746  13.8101

     occupation numbers 
     1.0000   1.0000   1.0000   1.0000   0.0000   0.0000   0.0000   0.0000
     0.0000   0.0000   0.0000   0.0000   0.0000   0.0000   0.0000   0.0000
     0.0000   0.0000   0.0000   0.0000

          k = 0.0238 0.5361-0.0556 (  3348 PWs)   bands (ev):

   -17.2029 -15.4205  -9.0939  -5.2012  -0.7341   4.7615   7.4001   8.2280
     8.6399   8.8499   9.5958   9.8199  10.3244  10.5079  10.9146  11.1892
    11.6969  12.1688  12.4934  12.6244

     occupation numbers 
     1.0000   1.0000   1.0000   1.0000   0.0000   0.0000   0.0000   0.0000
     0.0000   0.0000   0.0000   0.0000   0.0000   0.0000   0.0000   0.0000
     0.0000   0.0000   0.0000   0.0000

          k = 0.0238-0.5636-0.0556 (  3358 PWs)   bands (ev):

   -16.8267 -15.8389  -9.1258  -5.0247  -0.9572   4.7466   8.1021   8.8421
     8.9506   9.3496   9.5942   9.7245  10.1189  10.3737  10.5664  11.0581
    11.3099  11.8252  12.3931  13.2123

     occupation numbers 
     1.0000   1.0000   1.0000   1.0000   0.0000   0.0000   0.0000   0.0000
     0.0000   0.0000   0.0000   0.0000   0.0000   0.0000   0.0000   0.0000
     0.0000   0.0000   0.0000   0.0000

          k = 0.0238-0.5086-0.0556 (  3364 PWs)   bands (ev):

   -17.6457 -14.9091  -9.0395  -5.5064  -0.3410   4.7902   6.7266   7.5308
     7.9501   8.1431   9.1594   9.6242  10.3643  10.9594  11.4017  11.7757
    11.8068  12.0387  12.8084  13.4464

     occupation numbers 
     1.0000   1.0000   1.0000   1.0000   0.0000   0.0000   0.0000   0.0000
     0.0000   0.0000   0.0000   0.0000   0.0000   0.0000   0.0000   0.0000
     0.0000   0.0000   0.0000   0.0000

          k = 0.0238-0.4536-0.0556 (  3356 PWs)   bands (ev):

   -18.5127 -13.7694  -8.8478  -6.2979   0.7576   4.8803   5.4846   6.2365
     6.6695   6.8399   7.9006   8.3331   9.8590  10.5310  11.8810  12.2277
    13.0899  13.3668  13.5496  13.8299

     occupation numbers 
     1.0000   1.0000   1.0000   1.0000   0.0000   0.0000   0.0000   0.0000
     0.0000   0.0000   0.0000   0.0000   0.0000   0.0000   0.0000   0.0000
     0.0000   0.0000   0.0000   0.0000

          k = 0.0238-0.3986-0.0556 (  3340 PWs)   bands (ev):

   -19.3023 -12.5546  -8.5544  -7.1425   2.0615   4.3375   5.0585   5.0854
     5.5301   5.6871   6.7720   7.1871   8.7613   9.3956  11.3699  12.2461
    13.0155  13.9192  14.5933  15.1229

     occupation numbers 
     1.0000   1.0000   1.0000   1.0000   0.0000   0.0000   0.0000   0.0000
     0.0000   0.0000   0.0000   0.0000   0.0000   0.0000   0.0000   0.0000
     0.0000   0.0000   0.0000   0.0000

          k = 0.0238-0.3437-0.0556 (  3344 PWs)   bands (ev):

   -20.0019 -11.2990  -8.1747  -7.9412   3.3678   3.4205   4.0916   4.5456
     4.6710   5.2478   5.7855   6.1904   7.7885   8.4037  10.4555  11.2651
    12.5407  13.5931  13.6481  14.7618

     occupation numbers 
     1.0000   1.0000   1.0000   1.0000   0.0000   0.0000   0.0000   0.0000
     0.0000   0.0000   0.0000   0.0000   0.0000   0.0000   0.0000   0.0000
     0.0000   0.0000   0.0000   0.0000

          k = 0.0238-0.2887-0.0556 (  3354 PWs)   bands (ev):

   -20.6034 -10.0335  -8.6483  -7.7174   2.5342   3.2090   3.6555   3.8159
     4.7683   5.0391   5.2909   5.5001   6.9543   7.5579   9.6481  10.4254
    11.0013  12.9148  12.9237  13.9344

     occupation numbers 
     1.0000   1.0000   1.0000   1.0000   0.0000   0.0000   0.0000   0.0000
     0.0000   0.0000   0.0000   0.0000   0.0000   0.0000   0.0000   0.0000
     0.0000   0.0000   0.0000   0.0000

          k = 0.0238-0.2337-0.0556 (  3356 PWs)   bands (ev):

   -21.1034  -9.2465  -8.7983  -7.2037   1.8435   2.5030   2.9615   3.1075
     4.2207   4.6187   5.6693   6.1307   6.3231   6.8602   8.9707   9.4700
     9.7316  12.0381  12.3010  13.2449

     occupation numbers 
     1.0000   1.0000   1.0000   1.0000   0.0000   0.0000   0.0000   0.0000
     0.0000   0.0000   0.0000   0.0000   0.0000   0.0000   0.0000   0.0000
     0.0000   0.0000   0.0000   0.0000

          k = 0.0238-0.1787-0.0556 (  3360 PWs)   bands (ev):

   -21.5000  -9.7267  -7.6526  -6.6729   1.2974   1.9432   2.4065   2.5479
     3.6704   4.0645   5.7012   5.8128   6.3148   7.3766   8.1090   8.4315
     9.1803  11.2137  11.7888  12.6978

     occupation numbers 
     1.0000   1.0000   1.0000   1.0000   0.0000   0.0000   0.0000   0.0000
     0.0000   0.0000   0.0000   0.0000   0.0000   0.0000   0.0000   0.0000
     0.0000   0.0000   0.0000   0.0000

          k = 0.0238-0.1237-0.0556 (  3364 PWs)   bands (ev):

   -21.7918 -10.0833  -6.6763  -6.1819   0.8966   1.5321   1.9984   2.1375
     3.2646   3.6572   5.2993   5.8176   5.9662   6.9989   8.0308   8.3448
     8.7750  10.5688  11.4059  12.2950

     occupation numbers 
     1.0000   1.0000   1.0000   1.0000   0.0000   0.0000   0.0000   0.0000
     0.0000   0.0000   0.0000   0.0000   0.0000   0.0000   0.0000   0.0000
     0.0000   0.0000   0.0000   0.0000

          k = 0.0238-0.0687-0.0556 (  3366 PWs)   bands (ev):

   -21.9777 -10.3101  -5.9692  -5.8083   0.6416   1.2704   1.7386   1.8764
     3.0060   3.3979   5.0426   5.6222   5.8774   6.2290   7.7787   8.5157
     9.0167  10.1710  11.1600  12.0379

     occupation numbers 
     1.0000   1.0000   1.0000   1.0000   0.0000   0.0000   0.0000   0.0000
     0.0000   0.0000   0.0000   0.0000   0.0000   0.0000   0.0000   0.0000
     0.0000   0.0000   0.0000   0.0000

          k = 0.0238-0.0137-0.0556 (  3390 PWs)   bands (ev):

   -22.0579 -10.4082  -5.6571  -5.6313   0.5323   1.1582   1.6271   1.7645
     2.8950   3.2867   4.9324   5.5190   5.8244   5.8793   7.6699   8.4042
     9.3123  10.0105  11.0540  11.9274

     occupation numbers 
     1.0000   1.0000   1.0000   1.0000   0.0000   0.0000   0.0000   0.0000
     0.0000   0.0000   0.0000   0.0000   0.0000   0.0000   0.0000   0.0000
     0.0000   0.0000   0.0000   0.0000

          k = 0.0714 0.1237-0.0556 (  3380 PWs)   bands (ev):

   -21.7128  -9.9863  -6.9089  -6.3921   1.0060   1.6442   2.1098   2.2495
     3.3754   3.7684   5.4092   5.9366   6.1047   7.1165   8.0696   8.1401
     8.8860  10.7850  11.5100  12.4049

     occupation numbers 
     1.0000   1.0000   1.0000   1.0000   0.0000   0.0000   0.0000   0.0000
     0.0000   0.0000   0.0000   0.0000   0.0000   0.0000   0.0000   0.0000
     0.0000   0.0000   0.0000   0.0000

          k = 0.0714 0.1787-0.0556 (  3370 PWs)   bands (ev):

   -21.4212  -9.6317  -7.7854  -6.9340   1.4069   2.0552   2.5177   2.6599
     3.7810   4.1761   5.8111   6.1136   6.4396   7.1482   7.9157   8.5359
     9.2915  11.5477  11.8883  12.8070

     occupation numbers 
     1.0000   1.0000   1.0000   1.0000   0.0000   0.0000   0.0000   0.0000
     0.0000   0.0000   0.0000   0.0000   0.0000   0.0000   0.0000   0.0000
     0.0000   0.0000   0.0000   0.0000

          k = 0.0714 0.2337-0.0556 (  3360 PWs)   bands (ev):

   -21.0246  -9.1516  -8.8566  -7.5008   1.9531   2.6151   3.0728   3.2196
     4.3316   4.7314   6.0020   6.0802   6.3716   6.9740   9.0015   9.0723
     9.8428  12.3896  12.5441  13.3535

     occupation numbers 
     1.0000   1.0000   1.0000   1.0000   0.0000   0.0000   0.0000   0.0000
     0.0000   0.0000   0.0000   0.0000   0.0000   0.0000   0.0000   0.0000
     0.0000   0.0000   0.0000   0.0000

          k = 0.0714 0.2887-0.0556 (  3356 PWs)   bands (ev):

   -20.5255 -10.0423  -8.5545  -8.0391   2.6439   3.3211   3.7668   3.9282
     4.7085   5.0704   5.4285   5.9347   7.0555   7.6692   9.7432  10.2732
    10.5439  12.9814  13.6284  14.0427

     occupation numbers 
     1.0000   1.0000   1.0000   1.0000   0.0000   0.0000   0.0000   0.0000
     0.0000   0.0000   0.0000   0.0000   0.0000   0.0000   0.0000   0.0000
     0.0000   0.0000   0.0000   0.0000

          k = 0.0714 0.3437-0.0556 (  3342 PWs)   bands (ev):

   -19.9236 -11.2748  -8.5142  -7.8475   3.3501   3.4781   4.1948   4.6448
     4.7851   5.7208   5.8869   6.3052   7.8865   8.5141  10.5357  11.3635
    11.6044  13.5390  14.5423  14.8686

     occupation numbers 
     1.0000   1.0000   1.0000   1.0000   0.0000   0.0000   0.0000   0.0000
     0.0000   0.0000   0.0000   0.0000   0.0000   0.0000   0.0000   0.0000
     0.0000   0.0000   0.0000   0.0000

          k = 0.0714 0.3986-0.0556 (  3356 PWs)   bands (ev):

   -19.2276 -12.5119  -8.9034  -7.0536   2.0088   4.4515   5.1931   5.5337
     5.6331   5.8035   6.8712   7.2983   8.8500   9.5051  11.4059  12.3338
    12.4832  13.6139  14.7578  15.2174

     occupation numbers 
     1.0000   1.0000   1.0000   1.0000   0.0000   0.0000   0.0000   0.0000
     0.0000   0.0000   0.0000   0.0000   0.0000   0.0000   0.0000   0.0000
     0.0000   0.0000   0.0000   0.0000

          k = 0.0714 0.4536-0.0556 (  3362 PWs)   bands (ev):

   -18.4381 -13.7135  -9.1991  -6.2061   0.7255   5.3492   5.6096   6.3422
     6.7696   6.9516   7.9929   8.4435   9.9240  10.6392  11.8555  12.0822
    13.1441  13.4704  13.6294  13.9066

     occupation numbers 
     1.0000   1.0000   1.0000   1.0000   0.0000   0.0000   0.0000   0.0000
     0.0000   0.0000   0.0000   0.0000   0.0000   0.0000   0.0000   0.0000
     0.0000   0.0000   0.0000   0.0000

          k = 0.0714 0.5086-0.0556 (  3348 PWs)   bands (ev):

   -17.5727 -14.8425  -9.3868  -5.4098  -0.3589   5.2784   6.8314   7.6299
     8.0427   8.2544   9.2330   9.7334  10.4378  10.9007  11.5025  11.8590
    11.9127  12.1444  12.7881  13.5321

     occupation numbers 
     1.0000   1.0000   1.0000   1.0000   0.0000   0.0000   0.0000   0.0000
     0.0000   0.0000   0.0000   0.0000   0.0000   0.0000   0.0000   0.0000
     0.0000   0.0000   0.0000   0.0000

          k = 0.0714 0.5636-0.0556 (  3344 PWs)   bands (ev):

   -16.7569 -15.7685  -9.4757  -4.9223  -0.9714   5.2346   8.2016   8.9375
     9.0168   9.4116   9.7047   9.8070  10.1913  10.4833  10.6418  11.1649
    11.3677  11.9292  12.3827  13.2683

     occupation numbers 
     1.0000   1.0000   1.0000   1.0000   0.0000   0.0000   0.0000   0.0000
     0.0000   0.0000   0.0000   0.0000   0.0000   0.0000   0.0000   0.0000
     0.0000   0.0000   0.0000   0.0000

          k = 0.0714-0.5361-0.0556 (  3344 PWs)   bands (ev):

   -17.1316 -15.3575  -9.4441  -5.1013  -0.7510   5.2503   7.5027   8.3187
     8.7247   8.9608   9.6821   9.8606  10.4329  10.5640  10.9850  11.2973
    11.7122  12.2637  12.5960  12.7232

     occupation numbers 
     1.0000   1.0000   1.0000   1.0000   0.0000   0.0000   0.0000   0.0000
     0.0000   0.0000   0.0000   0.0000   0.0000   0.0000   0.0000   0.0000
     0.0000   0.0000   0.0000   0.0000

          k = 0.0714-0.4811-0.0556 (  3360 PWs)   bands (ev):

   -18.0124 -14.2911  -9.3092  -5.7903   0.1473   5.3168   6.1935   6.9696
     7.3899   7.5845   8.6007   9.0707  10.4749  11.1713  11.2664  11.9346
    12.6516  13.0194  13.1435  13.8705

     occupation numbers 
     1.0000   1.0000   1.0000   1.0000   0.0000   0.0000   0.0000   0.0000
     0.0000   0.0000   0.0000   0.0000   0.0000   0.0000   0.0000   0.0000
     0.0000   0.0000   0.0000   0.0000

          k = 0.0714-0.4261-0.0556 (  3360 PWs)   bands (ev):

   -18.8439 -13.1190  -9.0638  -6.6320   1.3528   4.9833   5.4687   5.7497
     6.1837   6.3564   7.4156   7.8525   9.3761  10.0545  11.8179  12.3467
    12.8999  13.3981  14.5383  14.6383

     occupation numbers 
     1.0000   1.0000   1.0000   1.0000   0.0000   0.0000   0.0000   0.0000
     0.0000   0.0000   0.0000   0.0000   0.0000   0.0000   0.0000   0.0000
     0.0000   0.0000   0.0000   0.0000

          k = 0.0714-0.3712-0.0556 (  3352 PWs)   bands (ev):

   -19.5873 -11.8967  -8.7191  -7.4599   2.6772   3.9479   4.6737   5.1192
     5.2660   5.6345   6.3613   6.7816   8.3525   8.9915  10.9668  11.8384
    12.1534  13.6737  14.7491  15.2601

     occupation numbers 
     1.0000   1.0000   1.0000   1.0000   0.0000   0.0000   0.0000   0.0000
     0.0000   0.0000   0.0000   0.0000   0.0000   0.0000   0.0000   0.0000
     0.0000   0.0000   0.0000   0.0000

          k = 0.0714-0.3162-0.0556 (  3348 PWs)   bands (ev):

   -20.2370 -10.6557  -8.2842  -8.2137   3.0432   3.7109   4.0001   4.2619
     4.3383   5.4501   5.7580   5.9179   7.4537   8.0732  10.1257  10.8940
    10.9917  13.2817  14.1349  14.4393

     occupation numbers 
     1.0000   1.0000   1.0000   1.0000   0.0000   0.0000   0.0000   0.0000
     0.0000   0.0000   0.0000   0.0000   0.0000   0.0000   0.0000   0.0000
     0.0000   0.0000   0.0000   0.0000

          k = 0.0714-0.2612-0.0556 (  3356 PWs)   bands (ev):

   -20.7875  -9.4374  -8.8676  -7.7765   2.2806   2.9503   3.4041   3.5553
     4.6550   5.0635   5.3935   6.0139   6.6929   7.3026   9.3914   9.6237
    10.1738  12.6779  13.0879  13.6805

     occupation numbers 
     1.0000   1.0000   1.0000   1.0000   0.0000   0.0000   0.0000   0.0000
     0.0000   0.0000   0.0000   0.0000   0.0000   0.0000   0.0000   0.0000
     0.0000   0.0000   0.0000   0.0000

          k = 0.0714-0.2062-0.0556 (  3366 PWs)   bands (ev):

   -21.2361  -9.4068  -8.3034  -7.2183   1.6618   2.3166   2.7770   2.9211
     4.0386   4.4354   6.0635   6.1194   6.6056   6.6851   8.4259   8.7868
     9.5489  12.0249  12.1248  13.0623

     occupation numbers 
     1.0000   1.0000   1.0000   1.0000   0.0000   0.0000   0.0000   0.0000
     0.0000   0.0000   0.0000   0.0000   0.0000   0.0000   0.0000   0.0000
     0.0000   0.0000   0.0000   0.0000

          k = 0.0714-0.1512-0.0556 (  3368 PWs)   bands (ev):

   -21.5797  -9.8236  -7.3195  -6.6517   1.1882   1.8311   2.2954   2.4360
     3.5600   3.9538   5.5923   6.0517   6.2468   7.4811   7.6415   8.3204
     9.0706  11.1304  11.6831  12.5879

     occupation numbers 
     1.0000   1.0000   1.0000   1.0000   0.0000   0.0000   0.0000   0.0000
     0.0000   0.0000   0.0000   0.0000   0.0000   0.0000   0.0000   0.0000
     0.0000   0.0000   0.0000   0.0000

          k = 0.0714-0.0962-0.0556 (  3366 PWs)   bands (ev):

   -21.8184 -10.1154  -6.5589  -6.1556   0.8602   1.4947   1.9614   2.1002
     3.2277   3.6201   5.2627   5.8167   5.9943   6.8185   7.9957   8.4366
     8.7381  10.5213  11.3707  12.2583

     occupation numbers 
     1.0000   1.0000   1.0000   1.0000   0.0000   0.0000   0.0000   0.0000
     0.0000   0.0000   0.0000   0.0000   0.0000   0.0000   0.0000   0.0000
     0.0000   0.0000   0.0000   0.0000

          k = 0.0714-0.0412-0.0556 (  3374 PWs)   bands (ev):

   -21.9515 -10.2777  -6.0843  -5.8617   0.6780   1.3078   1.7757   1.9137
     3.0430   3.4349   5.0793   5.6548   5.8748   6.3563   7.8149   8.5528
     8.9155  10.2225  11.1953  12.0747

     occupation numbers 
     1.0000   1.0000   1.0000   1.0000   0.0000   0.0000   0.0000   0.0000
     0.0000   0.0000   0.0000   0.0000   0.0000   0.0000   0.0000   0.0000
     0.0000   0.0000   0.0000   0.0000

          k = 0.1190 0.2062-0.0556 (  3370 PWs)   bands (ev):

   -21.0772  -9.2165  -8.5914  -7.6034   1.8806   2.5406   2.9992   3.1451
     4.2595   4.6584   6.1761   6.2848   6.5138   6.9188   8.2871   8.9970
     9.7694  12.3162  12.5981  13.2802

     occupation numbers 
     1.0000   1.0000   1.0000   1.0000   0.0000   0.0000   0.0000   0.0000
     0.0000   0.0000   0.0000   0.0000   0.0000   0.0000   0.0000   0.0000
     0.0000   0.0000   0.0000   0.0000

          k = 0.1190 0.2612-0.0556 (  3356 PWs)   bands (ev):

   -20.6300  -9.5590  -8.6774  -8.2737   2.4994   3.1743   3.6268   3.7794
     4.8745   5.0652   5.2884   6.7222   6.9013   7.5300   8.9874   9.5915
    10.3924  12.8263  13.8319  13.8978

     occupation numbers 
     1.0000   1.0000   1.0000   1.0000   0.0000   0.0000   0.0000   0.0000
     0.0000   0.0000   0.0000   0.0000   0.0000   0.0000   0.0000   0.0000
     0.0000   0.0000   0.0000   0.0000

          k = 0.1190 0.3162-0.0556 (  3338 PWs)   bands (ev):

   -20.0805 -10.6635  -8.8471  -8.0264   3.2621   3.7908   3.9770   4.4137
     4.5628   5.6554   6.0623   6.6764   7.6560   8.2953  10.0508  10.3015
    11.1602  13.2658  14.6525  15.0102

     occupation numbers 
     1.0000   1.0000   1.0000   1.0000   0.0000   0.0000   0.0000   0.0000
     0.0000   0.0000   0.0000   0.0000   0.0000   0.0000   0.0000   0.0000
     0.0000   0.0000   0.0000   0.0000

          k = 0.1190 0.3712-0.0556 (  3354 PWs)   bands (ev):

   -19.4340 -11.8437  -9.3212  -7.2753   2.5290   4.1668   4.8897   5.3273
     5.4943   6.5045   6.5641   7.0090   8.5389   9.2113  11.0709  11.1977
    12.0705  13.2685  15.2293  15.3941

     occupation numbers 
     1.0000   1.0000   1.0000   1.0000   0.0000   0.0000   0.0000   0.0000
     0.0000   0.0000   0.0000   0.0000   0.0000   0.0000   0.0000   0.0000
     0.0000   0.0000   0.0000   0.0000

          k = 0.1190 0.4261-0.0556 (  3362 PWs)   bands (ev):

   -18.6925 -13.0273  -9.6840  -6.4488   1.2555   5.2100   5.9624   6.3452
     6.3868   6.5849   7.6057   8.0741   9.5207  10.2722  11.6655  11.8990
    13.1130  13.1753  14.5516  14.7336

     occupation numbers 
     1.0000   1.0000   1.0000   1.0000   0.0000   0.0000   0.0000   0.0000
     0.0000   0.0000   0.0000   0.0000   0.0000   0.0000   0.0000   0.0000
     0.0000   0.0000   0.0000   0.0000

          k = 0.1190 0.4811-0.0556 (  3350 PWs)   bands (ev):

   -17.8649 -14.1727  -9.9343  -5.6043   0.0863   6.1975   6.4224   7.1696
     7.5791   7.8074   8.7572   9.2904  10.4648  11.2292  11.4789  11.7463
    12.8351  13.2074  13.3168  14.0196

     occupation numbers 
     1.0000   1.0000   1.0000   1.0000   0.0000   0.0000   0.0000   0.0000
     0.0000   0.0000   0.0000   0.0000   0.0000   0.0000   0.0000   0.0000
     0.0000   0.0000   0.0000   0.0000

          k = 0.1190 0.5361-0.0556 (  3336 PWs)   bands (ev):

   -16.9895 -15.2267 -10.0711  -4.9062  -0.8004   6.1469   7.7070   8.4625
     8.8787   9.1823   9.8503   9.8733  10.6493  10.6619  11.1429  11.5127
    11.7822  12.4645  12.7979  12.9170

     occupation numbers 
     1.0000   1.0000   1.0000   1.0000   0.0000   0.0000   0.0000   0.0000
     0.0000   0.0000   0.0000   0.0000   0.0000   0.0000   0.0000   0.0000
     0.0000   0.0000   0.0000   0.0000

          k = 0.1190 0.5911-0.0556 (  3332 PWs)   bands (ev):

   -16.6196 -15.6296 -10.1025  -4.7245  -1.0209   6.1328   8.3988   9.0281
     9.1255   9.5290   9.9253   9.9733  10.3446  10.7021  10.8040  11.3776
    11.4880  12.1351  12.3955  13.3951

     occupation numbers 
     1.0000   1.0000   1.0000   1.0000   0.0000   0.0000   0.0000   0.0000
     0.0000   0.0000   0.0000   0.0000   0.0000   0.0000   0.0000   0.0000
     0.0000   0.0000   0.0000   0.0000

          k = 0.1190-0.5086-0.0556 (  3340 PWs)   bands (ev):

   -17.4276 -14.7165 -10.0167  -5.2191  -0.4111   6.1746   7.0411   7.8134
     8.2185   8.4767   9.3482   9.9514  10.5706  10.7222  11.7109  12.0386
    12.1233  12.3529  12.7988  13.6840

     occupation numbers 
     1.0000   1.0000   1.0000   1.0000   0.0000   0.0000   0.0000   0.0000
     0.0000   0.0000   0.0000   0.0000   0.0000   0.0000   0.0000   0.0000
     0.0000   0.0000   0.0000   0.0000

          k = 0.1190-0.4536-0.0556 (  3356 PWs)   bands (ev):

   -18.2880 -13.6069  -9.8239  -6.0215   0.6495   5.7784   6.2898   6.5504
     6.9673   7.1753   8.1707   8.6642  10.0190  10.8549  11.7381  11.7564
    13.2937  13.6749  13.8132  14.0170

     occupation numbers 
     1.0000   1.0000   1.0000   1.0000   0.0000   0.0000   0.0000   0.0000
     0.0000   0.0000   0.0000   0.0000   0.0000   0.0000   0.0000   0.0000
     0.0000   0.0000   0.0000   0.0000

          k = 0.1190-0.3986-0.0556 (  3354 PWs)   bands (ev):

   -19.0743 -12.4372  -9.5145  -6.8688   1.8881   4.6716   5.4084   5.8398
     6.0138   6.4318   7.0692   7.5212   9.0212   9.7240  11.4200  11.6676
    12.5766  13.1748  15.0121  15.4196

     occupation numbers 
     1.0000   1.0000   1.0000   1.0000   0.0000   0.0000   0.0000   0.0000
     0.0000   0.0000   0.0000   0.0000   0.0000   0.0000   0.0000   0.0000
     0.0000   0.0000   0.0000   0.0000

          k = 0.1190-0.3437-0.0556 (  3338 PWs)   bands (ev):

   -19.7685 -11.2485  -9.0971  -7.6600   3.1725   3.6969   4.4079   4.8507
     5.0102   6.0926   6.4724   6.6414   8.0827   8.7349  10.6354  10.6863
    11.5978  13.3327  15.0817  15.0953

     occupation numbers 
     1.0000   1.0000   1.0000   1.0000   0.0000   0.0000   0.0000   0.0000
     0.0000   0.0000   0.0000   0.0000   0.0000   0.0000   0.0000   0.0000
     0.0000   0.0000   0.0000   0.0000

          k = 0.1190-0.2887-0.0556 (  3350 PWs)   bands (ev):

   -20.3680 -10.0981  -8.5744  -8.3657   2.8628   3.5454   3.9893   4.1525
     4.4540   5.2545   5.6581   6.7191   7.2617   7.8933   9.4868   9.9339
    10.7582  13.0750  14.2567  14.4517

     occupation numbers 
     1.0000   1.0000   1.0000   1.0000   0.0000   0.0000   0.0000   0.0000
     0.0000   0.0000   0.0000   0.0000   0.0000   0.0000   0.0000   0.0000
     0.0000   0.0000   0.0000   0.0000

          k = 0.1190-0.2337-0.0556 (  3360 PWs)   bands (ev):

   -20.8661  -9.0533  -8.9613  -7.9478   2.1720   2.8390   3.2950   3.4436
     4.5530   4.9551   5.6348   6.5754   6.6574   7.2060   8.5803   9.2784
    10.0628  12.5659  13.2061  13.5707

     occupation numbers 
     1.0000   1.0000   1.0000   1.0000   0.0000   0.0000   0.0000   0.0000
     0.0000   0.0000   0.0000   0.0000   0.0000   0.0000   0.0000   0.0000
     0.0000   0.0000   0.0000   0.0000

          k = 0.1190-0.1787-0.0556 (  3360 PWs)   bands (ev):

   -21.2618  -9.4379  -8.1671  -7.2575   1.6256   2.2793   2.7401   2.8838
     4.0021   4.3987   6.0301   6.3179   6.6634   6.6890   8.0852   8.7495
     9.5123  12.0389  12.0889  13.0257

     occupation numbers 
     1.0000   1.0000   1.0000   1.0000   0.0000   0.0000   0.0000   0.0000
     0.0000   0.0000   0.0000   0.0000   0.0000   0.0000   0.0000   0.0000
     0.0000   0.0000   0.0000   0.0000

          k = 0.1190-0.1237-0.0556 (  3374 PWs)   bands (ev):

   -21.5537  -9.7928  -7.4445  -6.6479   1.2246   1.8684   2.3323   2.4733
     3.5967   3.9907   5.6285   5.9460   6.2527   7.5507   7.7351   8.3577
     9.1071  11.1505  11.7183  12.6245

     occupation numbers 
     1.0000   1.0000   1.0000   1.0000   0.0000   0.0000   0.0000   0.0000
     0.0000   0.0000   0.0000   0.0000   0.0000   0.0000   0.0000   0.0000
     0.0000   0.0000   0.0000   0.0000

          k = 0.1190-0.0687-0.0556 (  3370 PWs)   bands (ev):

   -21.7396 -10.0207  -6.8757  -6.2646   0.9694   1.6068   2.0726   2.2121
     3.3383   3.7312   5.3723   5.8087   6.0043   7.2557   8.0915   8.1714
     8.8487  10.6747  11.4757  12.3684

     occupation numbers 
     1.0000   1.0000   1.0000   1.0000   0.0000   0.0000   0.0000   0.0000
     0.0000   0.0000   0.0000   0.0000   0.0000   0.0000   0.0000   0.0000
     0.0000   0.0000   0.0000   0.0000

          k = 0.1667 0.2887-0.0556 (  3352 PWs)   bands (ev):

   -20.1330 -10.3489  -9.0864  -8.0872   3.1900   3.8815   3.9862   4.3266
     4.4884   5.5750   5.9932   7.3981   7.5769   8.2313   9.1088  10.2199
    11.0861  13.1599  14.5806  15.0593

     occupation numbers 
     1.0000   1.0000   1.0000   1.0000   0.0000   0.0000   0.0000   0.0000
     0.0000   0.0000   0.0000   0.0000   0.0000   0.0000   0.0000   0.0000
     0.0000   0.0000   0.0000   0.0000

          k = 0.1667 0.3437-0.0556 (  3366 PWs)   bands (ev):

   -19.5382 -11.2953  -9.7685  -7.3893   2.8379   4.0231   4.7348   5.1693
     5.3462   6.4054   6.8433   7.6654   8.3763   9.0675   9.7955  10.8833
    11.9224  13.0150  15.1218  15.3999

     occupation numbers 
     1.0000   1.0000   1.0000   1.0000   0.0000   0.0000   0.0000   0.0000
     0.0000   0.0000   0.0000   0.0000   0.0000   0.0000   0.0000   0.0000
     0.0000   0.0000   0.0000   0.0000

          k = 0.1667 0.3986-0.0556 (  3354 PWs)   bands (ev):

   -18.8460 -12.3562 -10.2662  -6.6004   1.6564   4.9967   5.7296   6.1501
     6.3523   7.3632   7.5797   7.8656   9.2566  10.0509  10.8216  11.3139
    12.8969  12.9710  15.3529  15.7339

     occupation numbers 
     1.0000   1.0000   1.0000   1.0000   0.0000   0.0000   0.0000   0.0000
     0.0000   0.0000   0.0000   0.0000   0.0000   0.0000   0.0000   0.0000
     0.0000   0.0000   0.0000   0.0000

          k = 0.1667 0.4536-0.0556 (  3346 PWs)   bands (ev):

   -18.0644 -13.4632 -10.6099  -5.7537   0.4960   6.1060   6.8500   7.2566
     7.4485   7.5294   8.4140   8.9953  10.0540  11.1683  11.4333  11.4937
    13.5747  13.9622  14.1194  14.1292

     occupation numbers 
     1.0000   1.0000   1.0000   1.0000   0.0000   0.0000   0.0000   0.0000
     0.0000   0.0000   0.0000   0.0000   0.0000   0.0000   0.0000   0.0000
     0.0000   0.0000   0.0000   0.0000

          k = 0.1667 0.5086-0.0556 (  3336 PWs)   bands (ev):

   -17.2115 -14.5364 -10.8221  -4.9404  -0.5279   7.3011   7.4128   8.0076
     8.4652   8.8101   9.4346  10.2768  10.5786  10.7295  12.0332  12.3357
    12.4358  12.6559  12.9668  13.8412

     occupation numbers 
     1.0000   1.0000   1.0000   1.0000   0.0000   0.0000   0.0000   0.0000
     0.0000   0.0000   0.0000   0.0000   0.0000   0.0000   0.0000   0.0000
     0.0000   0.0000   0.0000   0.0000

          k = 0.1667 0.5636-0.0556 (  3316 PWs)   bands (ev):

   -16.4143 -15.4292 -10.9069  -4.4260  -1.1350   7.3203   8.6896   8.7303
     9.3986   9.7921  10.2556  10.2579  10.6221  11.0287  11.0853  11.6933
    11.7168  12.4362  12.5542  13.6544

     occupation numbers 
     1.0000   1.0000   1.0000   1.0000   0.0000   0.0000   0.0000   0.0000
     0.0000   0.0000   0.0000   0.0000   0.0000   0.0000   0.0000   0.0000
     0.0000   0.0000   0.0000   0.0000

          k = 0.1667 0.6186-0.0556 (  3336 PWs)   bands (ev):

   -16.7782 -15.0366 -10.8831  -4.6180  -0.9141   7.3331   8.0118   8.4751
     9.1113   9.5142   9.8760  10.0845  10.8766  10.9724  11.4299  11.8321
    11.9993  12.7803  13.0861  13.1950

     occupation numbers 
     1.0000   1.0000   1.0000   1.0000   0.0000   0.0000   0.0000   0.0000
     0.0000   0.0000   0.0000   0.0000   0.0000   0.0000   0.0000   0.0000
     0.0000   0.0000   0.0000   0.0000

          k = 0.1667-0.4811-0.0556 (  3352 PWs)   bands (ev):

   -17.6451 -14.0100 -10.7335  -5.3349  -0.0446   6.7077   7.4147   7.4384
     7.8494   8.1421   8.9426   9.6194  10.3295  11.2208  11.7454  11.7992
    13.1470  13.4501  13.6162  14.2613

     occupation numbers 
     1.0000   1.0000   1.0000   1.0000   0.0000   0.0000   0.0000   0.0000
     0.0000   0.0000   0.0000   0.0000   0.0000   0.0000   0.0000   0.0000
     0.0000   0.0000   0.0000   0.0000

          k = 0.1667-0.4261-0.0556 (  3356 PWs)   bands (ev):

   -18.4655 -12.9103 -10.4572  -6.1805   1.0661   5.5349   6.2763   6.6889
     6.9102   7.5306   7.8811   8.4077   9.6858  10.5959  11.2423  11.3851
    13.2299  13.4315  14.6823  15.0499

     occupation numbers 
     1.0000   1.0000   1.0000   1.0000   0.0000   0.0000   0.0000   0.0000
     0.0000   0.0000   0.0000   0.0000   0.0000   0.0000   0.0000   0.0000
     0.0000   0.0000   0.0000   0.0000

          k = 0.1667-0.3712-0.0556 (  3364 PWs)   bands (ev):

   -19.2044 -11.8152 -10.0383  -7.0058   2.2472   4.4926   5.2150   5.6430
     5.8308   6.8695   7.3164   7.6623   8.8115   9.5407  10.3036  11.1537
    12.3929  12.9102  15.4233  15.8428

     occupation numbers 
     1.0000   1.0000   1.0000   1.0000   0.0000   0.0000   0.0000   0.0000
     0.0000   0.0000   0.0000   0.0000   0.0000   0.0000   0.0000   0.0000
     0.0000   0.0000   0.0000   0.0000

          k = 0.1667-0.3162-0.0556 (  3348 PWs)   bands (ev):

   -19.8466 -10.8003  -9.4503  -7.7495   3.4205   3.5889   4.2901   4.7304
     4.8988   5.9734   6.4005   7.5959   7.9628   8.6319   9.3760  10.5573
    11.4867  13.1462  14.9709  14.9742

     occupation numbers 
     1.0000   1.0000   1.0000   1.0000   0.0000   0.0000   0.0000   0.0000
     0.0000   0.0000   0.0000   0.0000   0.0000   0.0000   0.0000   0.0000
     0.0000   0.0000   0.0000   0.0000

          k = 0.1667-0.2612-0.0556 (  3352 PWs)   bands (ev):

   -20.3946  -9.9379  -8.6868  -8.3962   2.8267   3.5095   3.9584   4.1153
     4.5339   5.2123   5.6224   7.0867   7.2224   7.8634   9.0002   9.8945
    10.7213  13.0302  14.2210  14.5166

     occupation numbers 
     1.0000   1.0000   1.0000   1.0000   0.0000   0.0000   0.0000   0.0000
     0.0000   0.0000   0.0000   0.0000   0.0000   0.0000   0.0000   0.0000
     0.0000   0.0000   0.0000   0.0000

          k = 0.1667-0.2062-0.0556 (  3360 PWs)   bands (ev):

   -20.8402  -9.2011  -8.9300  -7.8700   2.2081   2.8761   3.3314   3.4808
     4.5876   4.9914   5.5511   6.3735   6.6154   7.2333   9.0030   9.3163
    10.0996  12.6037  13.1637  13.6074

     occupation numbers 
     1.0000   1.0000   1.0000   1.0000   0.0000   0.0000   0.0000   0.0000
     0.0000   0.0000   0.0000   0.0000   0.0000   0.0000   0.0000   0.0000
     0.0000   0.0000   0.0000   0.0000

          k = 0.1667-0.1512-0.0556 (  3354 PWs)   bands (ev):

   -21.1826  -9.3424  -8.5246  -7.1840   1.7345   2.3912   2.8508   2.9956
     4.1116   4.5088   5.8678   6.1248   6.4544   6.7521   8.8610   8.9364
     9.6220  12.0150  12.1961  13.1354

     occupation numbers 
     1.0000   1.0000   1.0000   1.0000   0.0000   0.0000   0.0000   0.0000
     0.0000   0.0000   0.0000   0.0000   0.0000   0.0000   0.0000   0.0000
     0.0000   0.0000   0.0000   0.0000

          k = 0.1667-0.0962-0.0556 (  3358 PWs)   bands (ev):

   -21.4204  -9.6299  -7.9168  -6.7668   1.4066   2.0552   2.5177   2.6598
     3.7809   4.1754   5.7369   5.8097   6.4216   7.1285   8.4743   8.5402
     9.2904  11.3525  11.8931  12.8074

     occupation numbers 
     1.0000   1.0000   1.0000   1.0000   0.0000   0.0000   0.0000   0.0000
     0.0000   0.0000   0.0000   0.0000   0.0000   0.0000   0.0000   0.0000
     0.0000   0.0000   0.0000   0.0000

          k = 0.2143 0.3712-0.0556 (  3366 PWs)   bands (ev):

   -18.8985 -11.9913 -10.6175  -6.6512   1.8084   4.9249   5.6505   6.0692
     6.2782   7.2795   7.7683   8.6011   9.1626   9.7820   9.9865  11.1798
    12.8239  12.8819  15.7741  16.2649

     occupation numbers 
     1.0000   1.0000   1.0000   1.0000   0.0000   0.0000   0.0000   0.0000
     0.0000   0.0000   0.0000   0.0000   0.0000   0.0000   0.0000   0.0000
     0.0000   0.0000   0.0000   0.0000

          k = 0.2143 0.4261-0.0556 (  3358 PWs)   bands (ev):

   -18.1659 -12.8515 -11.2240  -5.8346   0.7446   5.9633   6.6814   7.0886
     7.3580   8.2290   8.7752   8.9074   9.8154  10.4894  11.0438  11.2961
    13.5396  13.8529  15.0054  15.4777

     occupation numbers 
     1.0000   1.0000   1.0000   1.0000   0.0000   0.0000   0.0000   0.0000
     0.0000   0.0000   0.0000   0.0000   0.0000   0.0000   0.0000   0.0000
     0.0000   0.0000   0.0000   0.0000

          k = 0.2143 0.4811-0.0556 (  3320 PWs)   bands (ev):

   -17.3519 -13.8257 -11.5845  -4.9811  -0.2787   7.1299   7.6783   8.2083
[...]
    10.3366  12.7860  12.9925  13.7895

     occupation numbers 
     1.0000   1.0000   1.0000   1.0000   0.0000   0.0000   0.0000   0.0000
     0.0000   0.0000   0.0000   0.0000   0.0000   0.0000   0.0000   0.0000
     0.0000   0.0000   0.0000   0.0000

          k = 0.2143-0.1237-0.0556 (  3352 PWs)   bands (ev):

   -20.9983  -9.1196  -9.0957  -7.2941   1.9889   2.6521   3.1089   3.2566
     4.3655   4.7651   5.5662   5.8882   6.4207   7.0065   9.1148   9.8771
     9.9334  12.1676  12.4369  13.3904

     occupation numbers 
     1.0000   1.0000   1.0000   1.0000   0.0000   0.0000   0.0000   0.0000
     0.0000   0.0000   0.0000   0.0000   0.0000   0.0000   0.0000   0.0000
     0.0000   0.0000   0.0000   0.0000

          k = 0.2619 0.4536-0.0556 (  3336 PWs)   bands (ev):

   -17.4007 -13.4181 -12.0213  -5.0003  -0.1790   7.0585   7.5512   8.1220
     8.5101   9.0190   9.8716  10.0411  10.2310  10.3626  11.9821  12.1534
    14.4823  14.6055  14.7370  14.9560

     occupation numbers 
     1.0000   1.0000   1.0000   1.0000   0.0000   0.0000   0.0000   0.0000
     0.0000   0.0000   0.0000   0.0000   0.0000   0.0000   0.0000   0.0000
     0.0000   0.0000   0.0000   0.0000

          k = 0.2619 0.5086-0.0556 (  3312 PWs)   bands (ev):

   -16.5732 -14.1688 -12.4869  -4.1611  -1.0772   7.8246   8.2618   9.3469
     9.8001   9.9749  10.0001  10.7600  11.1900  11.2615  13.0163  13.2880
    13.3052  13.4427  13.7664  14.1150

     occupation numbers 
     1.0000   1.0000   1.0000   1.0000   0.0000   0.0000   0.0000   0.0000
     0.0000   0.0000   0.0000   0.0000   0.0000   0.0000   0.0000   0.0000
     0.0000   0.0000   0.0000   0.0000

          k = 0.2619 0.5636-0.0556 (  3312 PWs)   bands (ev):

   -15.8045 -14.9378 -12.6636  -3.5488  -1.7125   7.7949   9.5013   9.9187
    10.1391  10.7607  11.2171  11.2385  11.5806  11.9880  12.0320  12.5884
    12.5968  13.2219  13.3592  14.2733

     occupation numbers 
     1.0000   1.0000   1.0000   0.9995   0.0010   0.0000   0.0000   0.0000
     0.0000   0.0000   0.0000   0.0000   0.0000   0.0000   0.0000   0.0000
     0.0000   0.0000   0.0000   0.0000

          k = 0.2619 0.6186-0.0556 (  3316 PWs)   bands (ev):

   -16.1558 -14.5853 -12.6073  -3.7929  -1.4624   7.8131   8.8876   9.9529
    10.0362  10.4922  10.5893  10.5904  11.7780  11.9257  12.3940  12.7331
    12.8872  13.6275  13.7461  13.9910

     occupation numbers 
     1.0000   1.0000   1.0000   1.0000   0.0000   0.0000   0.0000   0.0000
     0.0000   0.0000   0.0000   0.0000   0.0000   0.0000   0.0000   0.0000
     0.0000   0.0000   0.0000   0.0000

          k = 0.2619 0.6736-0.0556 (  3320 PWs)   bands (ev):

   -16.9918 -13.7690 -12.2983  -4.5747  -0.6378   7.6489   7.7678   8.7057
     9.1398   9.4437  10.0268  10.5662  10.6491  10.6593  12.5064  12.7488
    13.9872  14.1174  14.5328  14.5705

     occupation numbers 
     1.0000   1.0000   1.0000   1.0000   0.0000   0.0000   0.0000   0.0000
     0.0000   0.0000   0.0000   0.0000   0.0000   0.0000   0.0000   0.0000
     0.0000   0.0000   0.0000   0.0000

          k = 0.2619-0.4261-0.0556 (  3348 PWs)   bands (ev):

   -17.7929 -13.1167 -11.6554  -5.4239   0.2842   6.4957   7.1579   7.5907
     7.9159   8.6393   9.3468   9.4973   9.9805  10.3774  11.5523  11.5823
    13.9946  14.3673  14.8345  15.2471

     occupation numbers 
     1.0000   1.0000   1.0000   1.0000   0.0000   0.0000   0.0000   0.0000
     0.0000   0.0000   0.0000   0.0000   0.0000   0.0000   0.0000   0.0000
     0.0000   0.0000   0.0000   0.0000

          k = 0.2619-0.3712-0.0556 (  3352 PWs)   bands (ev):

   -18.5168 -12.6016 -10.7513  -6.2272   1.2054   5.4633   6.1959   6.6071
     6.8368   7.7948   8.1792   8.3574   9.5813  10.5062  10.6705  11.2583
    13.1720  13.3602  15.1852  15.7213

     occupation numbers 
     1.0000   1.0000   1.0000   1.0000   0.0000   0.0000   0.0000   0.0000
     0.0000   0.0000   0.0000   0.0000   0.0000   0.0000   0.0000   0.0000
     0.0000   0.0000   0.0000   0.0000

          k = 0.2619-0.3162-0.0556 (  3354 PWs)   bands (ev):

   -19.1525 -12.1044  -9.7826  -6.9504   2.0979   4.5643   5.2929   5.7224
     5.9048   6.9502   7.0149   7.4178   8.8968   9.6138  11.0040  11.2650
    12.4664  13.0246  15.4505  15.4565

     occupation numbers 
     1.0000   1.0000   1.0000   1.0000   0.0000   0.0000   0.0000   0.0000
     0.0000   0.0000   0.0000   0.0000   0.0000   0.0000   0.0000   0.0000
     0.0000   0.0000   0.0000   0.0000

          k = 0.2619-0.2612-0.0556 (  3336 PWs)   bands (ev):

   -19.6903 -11.5641  -8.8895  -7.5737   2.9490   3.8047   4.5226   4.9670
     5.1211   6.0699   6.2089   6.6383   8.1996   8.8446  10.8094  11.3932
    11.7146  13.4947  15.0812  15.1908

     occupation numbers 
     1.0000   1.0000   1.0000   1.0000   0.0000   0.0000   0.0000   0.0000
     0.0000   0.0000   0.0000   0.0000   0.0000   0.0000   0.0000   0.0000
     0.0000   0.0000   0.0000   0.0000

          k = 0.2619-0.2062-0.0556 (  3342 PWs)   bands (ev):

   -20.1319 -10.9752  -8.1946  -8.0918   3.1876   3.6895   3.9357   4.3715
     4.4866   5.4748   5.6005   6.0102   7.6039   8.2199  10.2746  11.0812
    11.7481  13.4298  13.9078  14.5826

     occupation numbers 
     1.0000   1.0000   1.0000   1.0000   0.0000   0.0000   0.0000   0.0000
     0.0000   0.0000   0.0000   0.0000   0.0000   0.0000   0.0000   0.0000
     0.0000   0.0000   0.0000   0.0000

          k = 0.2619-0.1512-0.0556 (  3348 PWs)   bands (ev):

   -20.4723 -10.3494  -8.4933  -7.7930   2.7155   3.3921   3.8275   4.0021
     4.5359   5.1473   5.3158   5.5492   7.1368   7.7417   9.8267  10.6087
    11.5563  12.9641  13.0855  14.1151

     occupation numbers 
     1.0000   1.0000   1.0000   1.0000   0.0000   0.0000   0.0000   0.0000
     0.0000   0.0000   0.0000   0.0000   0.0000   0.0000   0.0000   0.0000
     0.0000   0.0000   0.0000   0.0000

          k = 0.3095 0.5361-0.0556 (  3294 PWs)   bands (ev):

   -15.7660 -14.6076 -13.1247  -3.3333  -1.8728   7.6213   9.4382  10.5353
    10.6945  10.7061  11.1706  11.2067  12.3978  12.5284  12.9542  13.0951
    13.1738  13.2726  13.3781  13.7009

     occupation numbers 
     1.0000   1.0000   1.0000   0.9943   0.0057   0.0000   0.0000   0.0000
     0.0000   0.0000   0.0000   0.0000   0.0000   0.0000   0.0000   0.0000
     0.0000   0.0000   0.0000   0.0000

          k = 0.3095 0.5911-0.0556 (  3298 PWs)   bands (ev):

   -15.4113 -14.8788 -13.2626  -2.9928  -2.2097   7.5645   9.9716  10.3913
    10.6709  11.4230  11.8685  11.8800  12.2275  12.5844  12.6452  12.9568
    13.0792  13.1763  13.2034  13.5286

     occupation numbers 
     1.0000   1.0000   1.0000   0.9117   0.0866   0.0000   0.0000   0.0000
     0.0000   0.0000   0.0000   0.0000   0.0000   0.0000   0.0000   0.0000
     0.0000   0.0000   0.0000   0.0000

          k = 0.3095 0.6461-0.0556 (  3306 PWs)   bands (ev):

   -16.1680 -14.3664 -12.8591  -3.7416  -1.4791   7.7206   8.8528   9.9993
    10.4154  10.4830  10.5597  10.6895  11.7761  11.8936  13.1018  13.2827
    13.4967  13.7013  13.7657  13.8816

     occupation numbers 
     1.0000   1.0000   1.0000   1.0000   0.0000   0.0000   0.0000   0.0000
     0.0000   0.0000   0.0000   0.0000   0.0000   0.0000   0.0000   0.0000
     0.0000   0.0000   0.0000   0.0000

          k = 0.3095 0.7011-0.0556 (  3310 PWs)   bands (ev):

   -16.9689 -13.9952 -12.0516  -4.5748  -0.6754   7.6847   7.8506   8.7463
     9.1739   9.4070   9.4900  10.6309  10.6853  10.8965  12.5156  12.7805
    13.4039  13.5290  13.9020  14.2417

     occupation numbers 
     1.0000   1.0000   1.0000   1.0000   0.0000   0.0000   0.0000   0.0000
     0.0000   0.0000   0.0000   0.0000   0.0000   0.0000   0.0000   0.0000
     0.0000   0.0000   0.0000   0.0000

          k = 0.3095-0.3986-0.0556 (  3342 PWs)   bands (ev):

   -17.7186 -13.6544 -11.0992  -5.3769   0.1123   6.6026   7.3031   7.7215
     8.0154   8.1130   8.7950   9.5092  10.1607  11.2070  11.6602  11.6946
    13.7520  13.8730  14.0109  14.4557

     occupation numbers 
     1.0000   1.0000   1.0000   1.0000   0.0000   0.0000   0.0000   0.0000
     0.0000   0.0000   0.0000   0.0000   0.0000   0.0000   0.0000   0.0000
     0.0000   0.0000   0.0000   0.0000

          k = 0.3095-0.3437-0.0556 (  3350 PWs)   bands (ev):

   -18.3893 -13.2530 -10.1339  -6.1113   0.8774   5.6414   6.3949   6.8095
     6.8712   7.0340   8.0074   8.5167   9.8341  10.7076  11.5600  11.6512
    13.2906  13.5363  14.3292  14.4043

     occupation numbers 
     1.0000   1.0000   1.0000   1.0000   0.0000   0.0000   0.0000   0.0000
     0.0000   0.0000   0.0000   0.0000   0.0000   0.0000   0.0000   0.0000
     0.0000   0.0000   0.0000   0.0000

          k = 0.3095-0.2887-0.0556 (  3352 PWs)   bands (ev):

   -18.9716 -12.7779  -9.2680  -6.7628   1.6348   4.8132   5.5607   5.8960
     5.9937   6.1750   7.2246   7.6679   9.1816   9.8709  11.6077  12.1699
    12.7223  13.3231  14.7295  15.0750

     occupation numbers 
     1.0000   1.0000   1.0000   1.0000   0.0000   0.0000   0.0000   0.0000
     0.0000   0.0000   0.0000   0.0000   0.0000   0.0000   0.0000   0.0000
     0.0000   0.0000   0.0000   0.0000

          k = 0.3095-0.2337-0.0556 (  3350 PWs)   bands (ev):

   -19.4578 -12.2299  -8.6007  -7.3159   2.3785   4.1260   4.8612   5.2734
     5.3069   5.4727   6.5492   6.9655   8.5402   9.1752  11.1551  12.0270
    12.7604  13.8352  14.5134  15.2427

     occupation numbers 
     1.0000   1.0000   1.0000   1.0000   0.0000   0.0000   0.0000   0.0000
     0.0000   0.0000   0.0000   0.0000   0.0000   0.0000   0.0000   0.0000
     0.0000   0.0000   0.0000   0.0000

          k = 0.3095-0.1787-0.0556 (  3344 PWs)   bands (ev):

   -19.8461 -11.6183  -8.2331  -7.7617   3.0931   3.5842   4.3086   4.7619
     4.8884   5.1447   6.0055   6.4111   8.0069   8.6242  10.6661  11.4840
    13.2703  13.3977  13.7525  14.9761

     occupation numbers 
     1.0000   1.0000   1.0000   1.0000   0.0000   0.0000   0.0000   0.0000
     0.0000   0.0000   0.0000   0.0000   0.0000   0.0000   0.0000   0.0000
     0.0000   0.0000   0.0000   0.0000

          k = 0.3571 0.6186-0.0556 (  3302 PWs)   bands (ev):

   -15.5422 -14.9297 -13.0312  -3.2305  -1.9927   7.6448   9.9377  10.0954
    10.4384  11.3901  11.5095  11.8168  11.8989  11.9326  12.1367  13.0593
    13.0661  13.2383  13.3469  13.7397

     occupation numbers 
     1.0000   1.0000   1.0000   0.9852   0.0173   0.0000   0.0000   0.0000
     0.0000   0.0000   0.0000   0.0000   0.0000   0.0000   0.0000   0.0000
     0.0000   0.0000   0.0000   0.0000

          k = 0.3571 0.6736-0.0556 (  3314 PWs)   bands (ev):

   -16.1391 -14.8893 -12.2276  -3.8914  -1.4208   7.9894   8.9549   9.3384
    10.1090  10.2136  10.5847  10.6439  11.6131  11.8371  11.9915  12.1047
    12.3342  13.3152  13.3906  13.9951

     occupation numbers 
     1.0000   1.0000   1.0000   1.0000   0.0000   0.0000   0.0000   0.0000
     0.0000   0.0000   0.0000   0.0000   0.0000   0.0000   0.0000   0.0000
     0.0000   0.0000   0.0000   0.0000

          k = 0.3571 0.7286-0.0556 (  3328 PWs)   bands (ev):

   -16.8595 -14.6833 -11.2929  -4.5940  -0.8276   7.8503   8.0276   8.2214
     8.9495   9.3656   9.7147  10.5175  10.8286  10.8340  12.0092  12.3958
    12.4314  12.9337  12.9556  13.6406

     occupation numbers 
     1.0000   1.0000   1.0000   1.0000   0.0000   0.0000   0.0000   0.0000
     0.0000   0.0000   0.0000   0.0000   0.0000   0.0000   0.0000   0.0000
     0.0000   0.0000   0.0000   0.0000

          k = 0.3571-0.3712-0.0556 (  3342 PWs)   bands (ev):

   -17.5469 -14.3667 -10.3663  -5.2791  -0.2227   6.7333   6.8887   7.6094
     8.0160   8.2906   9.1291   9.7671  10.5308  10.9644  11.7986  11.9419
    12.5523  12.9128  13.1549  14.0743

     occupation numbers 
     1.0000   1.0000   1.0000   1.0000   0.0000   0.0000   0.0000   0.0000
     0.0000   0.0000   0.0000   0.0000   0.0000   0.0000   0.0000   0.0000
     0.0000   0.0000   0.0000   0.0000

          k = 0.3571-0.3162-0.0556 (  3354 PWs)   bands (ev):

   -18.1618 -13.9554  -9.5406  -5.9133   0.4017   5.7309   5.9963   6.7422
     7.1611   7.3611   8.3689   8.8490  10.2344  11.0379  11.5336  11.9186
    13.0896  13.3626  13.5377  13.8592

     occupation numbers 
     1.0000   1.0000   1.0000   1.0000   0.0000   0.0000   0.0000   0.0000
     0.0000   0.0000   0.0000   0.0000   0.0000   0.0000   0.0000   0.0000
     0.0000   0.0000   0.0000   0.0000

          k = 0.3571-0.2612-0.0556 (  3358 PWs)   bands (ev):

   -18.6905 -13.4525  -8.9193  -6.4757   1.0582   5.0605   5.2726   5.9750
     6.4091   6.5793   7.6413   8.0743   9.6027  10.2746  12.0367  12.1967
    13.1146  13.3158  14.0238  14.3076

     occupation numbers 
     1.0000   1.0000   1.0000   1.0000   0.0000   0.0000   0.0000   0.0000
     0.0000   0.0000   0.0000   0.0000   0.0000   0.0000   0.0000   0.0000
     0.0000   0.0000   0.0000   0.0000

          k = 0.3571-0.2062-0.0556 (  3342 PWs)   bands (ev):

   -19.1226 -12.8679  -8.5929  -6.9446   1.7315   4.5773   4.9691   5.3459
     5.7885   5.9466   7.0288   7.4459   9.0141   9.6524  11.6036  12.4992
    12.8610  13.8431  14.8766  14.9845

     occupation numbers 
     1.0000   1.0000   1.0000   1.0000   0.0000   0.0000   0.0000   0.0000
     0.0000   0.0000   0.0000   0.0000   0.0000   0.0000   0.0000   0.0000
     0.0000   0.0000   0.0000   0.0000

          k = 0.4048 0.7011-0.0556 (  3322 PWs)   bands (ev):

   -16.2182 -15.3814 -11.3535  -4.2173  -1.2609   7.9774   8.5018   9.1434
     9.2885  10.2706  10.4120  10.6997  10.8355  10.8499  11.1777  11.9456
    12.2295  12.2759  12.5834  13.9643

     occupation numbers 
     1.0000   1.0000   1.0000   1.0000   0.0000   0.0000   0.0000   0.0000
     0.0000   0.0000   0.0000   0.0000   0.0000   0.0000   0.0000   0.0000
     0.0000   0.0000   0.0000   0.0000

          k = 0.4048 0.7561-0.0556 (  3332 PWs)   bands (ev):

   -16.6897 -15.3620 -10.4784  -4.6603  -0.9818   6.7037   8.1878   8.7505
     9.3097   9.6018   9.7056  10.0177  10.7219  10.9780  11.1550  11.2536
    11.6960  12.5537  12.6552  13.2856

     occupation numbers 
     1.0000   1.0000   1.0000   1.0000   0.0000   0.0000   0.0000   0.0000
     0.0000   0.0000   0.0000   0.0000   0.0000   0.0000   0.0000   0.0000
     0.0000   0.0000   0.0000   0.0000

          k = 0.4048-0.3437-0.0556 (  3350 PWs)   bands (ev):

   -17.2875 -15.0510  -9.7082  -5.1589  -0.5936   5.6665   7.2538   8.0497
     8.4551   8.7002   9.5949  10.1186  10.1838  10.7845  11.3935  11.7357
    11.8100  12.3427  12.5360  13.2051

     occupation numbers 
     1.0000   1.0000   1.0000   1.0000   0.0000   0.0000   0.0000   0.0000
     0.0000   0.0000   0.0000   0.0000   0.0000   0.0000   0.0000   0.0000
     0.0000   0.0000   0.0000   0.0000

          k = 0.4048-0.2887-0.0556 (  3364 PWs)   bands (ev):

   -17.8405 -14.6096  -9.1368  -5.6539  -0.1043   4.9948   6.4417   7.2326
     7.6530   7.8452   8.8646   9.3292  10.7314  10.7737  11.5157  11.7183
    12.2007  12.5145  13.0334  13.6523

     occupation numbers 
     1.0000   1.0000   1.0000   1.0000   0.0000   0.0000   0.0000   0.0000
     0.0000   0.0000   0.0000   0.0000   0.0000   0.0000   0.0000   0.0000
     0.0000   0.0000   0.0000   0.0000

          k = 0.4048-0.2337-0.0556 (  3362 PWs)   bands (ev):

   -18.3112 -14.0713  -8.8580  -6.1016   0.4583   4.7922   5.7661   6.5338
     6.9642   7.1379   8.1923   8.6286  10.1410  10.8232  11.5111  12.2648
    12.8745  13.1545  13.3603  13.6544

     occupation numbers 
     1.0000   1.0000   1.0000   1.0000   0.0000   0.0000   0.0000   0.0000
     0.0000   0.0000   0.0000   0.0000   0.0000   0.0000   0.0000   0.0000
     0.0000   0.0000   0.0000   0.0000

          k = 0.4524 0.7835-0.0556 (  3342 PWs)   bands (ev):

   -16.6254 -15.7834  -9.7625  -4.8120  -1.0205   5.6372   8.5940   8.7092
     9.2330   9.5983   9.8162  10.0290  10.1812  10.1904  10.8321  11.2767
    11.6259  11.6447  12.4133  13.2981

     occupation numbers 
     1.0000   1.0000   1.0000   1.0000   0.0000   0.0000   0.0000   0.0000
     0.0000   0.0000   0.0000   0.0000   0.0000   0.0000   0.0000   0.0000
     0.0000   0.0000   0.0000   0.0000

          k = 0.4524-0.3162-0.0556 (  3350 PWs)   bands (ev):

   -16.9692 -15.6279  -9.2495  -5.0550  -0.8757   4.9383   7.7861   8.6198
     9.0251   9.2373   9.2722  10.0360  10.2850  10.5802  10.7265  10.8188
    11.6268  12.1917  12.2587  12.8880

     occupation numbers 
     1.0000   1.0000   1.0000   1.0000   0.0000   0.0000   0.0000   0.0000
     0.0000   0.0000   0.0000   0.0000   0.0000   0.0000   0.0000   0.0000
     0.0000   0.0000   0.0000   0.0000

          k = 0.4524-0.2612-0.0556 (  3358 PWs)   bands (ev):

   -17.4312 -15.1814  -9.0268  -5.3516  -0.5534   4.7108   7.0464   7.8633
     8.2799   8.4781   9.4817   9.9419   9.9824  10.8514  11.2520  11.5216
    11.5961  12.1335  12.4731  13.0202

     occupation numbers 
     1.0000   1.0000   1.0000   1.0000   0.0000   0.0000   0.0000   0.0000
     0.0000   0.0000   0.0000   0.0000   0.0000   0.0000   0.0000   0.0000
     0.0000   0.0000   0.0000   0.0000

          k =-0.5000-0.8660-0.0556 (  3360 PWs)   bands (ev):

   -16.7626 -15.9262  -9.0807  -5.0165  -0.9843   4.6816   8.4034   8.5098
     9.2541   9.3740   9.6711   9.8051   9.9617   9.9695  10.7952  11.0533
    11.4179  11.4307  12.5398  13.0754

     occupation numbers 
     1.0000   1.0000   1.0000   1.0000   0.0000   0.0000   0.0000   0.0000
     0.0000   0.0000   0.0000   0.0000   0.0000   0.0000   0.0000   0.0000
     0.0000   0.0000   0.0000   0.0000

     the Fermi energy is    -2.6029 ev

     Writing output data file Grafene.save/

     init_run     :      0.08s CPU      0.12s WALL (       1 calls)
     electrons    :     63.65s CPU     69.23s WALL (       1 calls)

     Called by init_run:
     wfcinit      :      0.00s CPU      0.00s WALL (       1 calls)
     wfcinit:atom :      0.06s CPU      0.06s WALL (     121 calls)
     wfcinit:wfcr :      3.62s CPU      4.37s WALL (     121 calls)
     potinit      :      0.01s CPU      0.02s WALL (       1 calls)
     hinit0       :      0.05s CPU      0.06s WALL (       1 calls)

     Called by electrons:
     c_bands      :     63.64s CPU     69.22s WALL (       1 calls)
     v_of_rho     :      0.01s CPU      0.01s WALL (       1 calls)
     v_h          :      0.00s CPU      0.00s WALL (       1 calls)
     v_xc         :      0.00s CPU      0.01s WALL (       1 calls)

     Called by c_bands:
     init_us_2    :      0.01s CPU      0.01s WALL (     121 calls)
     cegterg      :     59.73s CPU     64.40s WALL (     166 calls)

     Called by sum_band:

     Called by *egterg:
     h_psi        :     41.81s CPU     50.86s WALL (    2643 calls)
     g_psi        :      0.34s CPU      0.46s WALL (    2356 calls)
     cdiaghg      :      2.93s CPU      3.68s WALL (    2477 calls)
     cegterg:over :      8.01s CPU      5.76s WALL (    2356 calls)
     cegterg:upda :      5.94s CPU      4.77s WALL (    2356 calls)
     cegterg:last :      3.39s CPU      2.17s WALL (     508 calls)

     Called by h_psi:
     h_psi:pot    :     41.65s CPU     50.62s WALL (    2643 calls)
     h_psi:calbec :      0.28s CPU      0.40s WALL (    2643 calls)
     vloc_psi     :     40.96s CPU     49.79s WALL (    2643 calls)
     add_vuspsi   :      0.41s CPU      0.42s WALL (    2643 calls)

     General routines
     calbec       :      0.27s CPU      0.30s WALL (    2643 calls)
     fft          :      0.00s CPU      0.01s WALL (       3 calls)
     fftw         :     35.96s CPU     43.71s WALL (   62306 calls)
     davcio       :      0.00s CPU      0.23s WALL (     242 calls)


     PWSCF        :   1m 3.85s CPU   1m10.18s WALL


   This run was terminated on:  16:59: 7   3May2021            

=------------------------------------------------------------------------------=
   JOB DONE.
=------------------------------------------------------------------------------=
