 CRYSTAL
 PRIMVEC
    2.645886043    0.000000000    0.000000000
    0.000000000    2.645886043    0.000000000
    0.000000000    0.000000000    2.645886043
 PRIMCOORD
           2           1
C         4.341738183    3.175063252    3.175063252
O         3.175063252    3.175063252    3.175063252
BEGIN_BLOCK_DATAGRID_3D
3D_PWSCF
DATAGRID_3D_UNKNOWN
          21          21          21
  0.000000  0.000000  0.000000
  2.645886  0.000000  0.000000
  0.000000  2.645886  0.000000
  0.000000  0.000000  2.645886
  0.79042E-03  0.22850E-02  0.40464E-02  0.54012E-02  0.57808E-02  0.50636E-02
  0.36136E-02  0.19994E-02  0.70912E-03  0.51188E-04 -0.15778E-03 -0.97515E-03
 -0.22346E-02 -0.34650E-02 -0.41168E-02 -0.38286E-02 -0.26961E-02 -0.12725E-02
 -0.23783E-03  0.41932E-04  0.79042E-03  0.50670E-04  0.85526E-03  0.22407E-02
  0.34216E-02  0.36906E-02  0.29530E-02  0.16995E-02  0.55867E-03  0.10970E-04
 -0.33322E-03 -0.15625E-02 -0.35048E-02 -0.58255E-02 -0.80359E-02 -0.93890E-02
 -0.91143E-02 -0.71063E-02 -0.42420E-02 -0.17288E-02 -0.28571E-03  0.50670E-04
 -0.12754E-03  0.16764E-03  0.10908E-02  0.20415E-02  0.21979E-02  0.14996E-02
  0.55322E-03  0.16571E-04 -0.31397E-03 -0.16152E-02 -0.37992E-02 -0.65787E-02
 -0.97339E-02 -0.12948E-01 -0.15296E-01 -0.15381E-01 -0.12643E-01 -0.82677E-02
 -0.41561E-02 -0.13954E-02 -0.12754E-03 -0.57192E-03  0.32063E-05  0.53754E-03
  0.12862E-02  0.13622E-02  0.74274E-03  0.10906E-03 -0.10397E-03 -0.10617E-02
 -0.30236E-02 -0.57375E-02 -0.89139E-02 -0.12544E-01 -0.16545E-01 -0.19867E-01
 -0.20504E-01 -0.17367E-01 -0.11838E-01 -0.64489E-02 -0.26454E-02 -0.57192E-03
 -0.80680E-03 -0.47162E-05  0.38711E-03  0.10561E-02  0.11050E-02  0.52829E-03
  0.30976E-04 -0.23942E-03 -0.14421E-02 -0.36237E-02 -0.64855E-02 -0.97561E-02
 -0.13531E-01 -0.17834E-01 -0.21573E-01 -0.22484E-01 -0.19237E-01 -0.13277E-01
 -0.73939E-02 -0.31880E-02 -0.80680E-03 -0.57191E-03  0.32073E-05  0.53756E-03
  0.12863E-02  0.13622E-02  0.74277E-03  0.10907E-03 -0.10397E-03 -0.10617E-02
 -0.30236E-02 -0.57375E-02 -0.89141E-02 -0.12544E-01 -0.16545E-01 -0.19867E-01
 -0.20504E-01 -0.17367E-01 -0.11838E-01 -0.64489E-02 -0.26454E-02 -0.57191E-03
 -0.12753E-03  0.16766E-03  0.10909E-02  0.20415E-02  0.21979E-02  0.14996E-02
  0.55324E-03  0.16573E-04 -0.31397E-03 -0.16153E-02 -0.37993E-02 -0.65789E-02
 -0.97341E-02 -0.12948E-01 -0.15296E-01 -0.15382E-01 -0.12643E-01 -0.82678E-02
 -0.41562E-02 -0.13955E-02 -0.12753E-03  0.50674E-04  0.85529E-03  0.22408E-02
  0.34217E-02  0.36908E-02  0.29531E-02  0.16995E-02  0.55868E-03  0.10969E-04
 -0.33323E-03 -0.15625E-02 -0.35049E-02 -0.58257E-02 -0.80362E-02 -0.93893E-02
 -0.91146E-02 -0.71064E-02 -0.42421E-02 -0.17288E-02 -0.28572E-03  0.50674E-04
  0.79043E-03  0.22850E-02  0.40465E-02  0.54013E-02  0.57809E-02  0.50637E-02
  0.36137E-02  0.19994E-02  0.70911E-03  0.51181E-04 -0.15780E-03 -0.97523E-03
 -0.22348E-02 -0.34651E-02 -0.41170E-02 -0.38288E-02 -0.26962E-02 -0.12725E-02
 -0.23784E-03  0.41932E-04  0.79043E-03  0.23620E-02  0.43288E-02  0.63146E-02
  0.77761E-02  0.82617E-02  0.76167E-02  0.60895E-02  0.41907E-02  0.24063E-02
  0.10354E-02  0.22176E-03 -0.31271E-05 -0.25922E-03 -0.68037E-03 -0.91123E-03
 -0.77793E-03 -0.38461E-03 -0.39999E-04  0.11302E-03  0.87486E-03  0.23620E-02
  0.44165E-02  0.66109E-02  0.86916E-02  0.10221E-01  0.10816E-01  0.10287E-01
  0.87871E-02  0.67662E-02  0.47073E-02  0.29147E-02  0.15271E-02  0.61120E-03
  0.15431E-03  0.15852E-04  0.40007E-06  0.66383E-05  0.86434E-04  0.40337E-03
  0.11634E-02  0.25132E-02  0.44165E-02  0.65220E-02  0.87594E-02  0.10841E-01
  0.12388E-01  0.13054E-01  0.12651E-01  0.11272E-01  0.92784E-02  0.71084E-02
  0.50860E-02  0.33874E-02  0.21018E-02  0.12570E-02  0.80428E-03  0.64953E-03
  0.73024E-03  0.10629E-02  0.17336E-02  0.28516E-02  0.44737E-02  0.65220E-02
  0.83301E-02  0.10518E-01  0.12533E-01  0.14010E-01  0.14649E-01  0.14327E-01
  0.13129E-01  0.11298E-01  0.91619E-02  0.70428E-02  0.51888E-02  0.37372E-02
  0.27229E-02  0.21173E-02  0.18746E-02  0.19710E-02  0.24233E-02  0.32761E-02
  0.45652E-02  0.62797E-02  0.83301E-02  0.95650E-02  0.11692E-01  0.13617E-01
  0.14974E-01  0.15517E-01  0.15216E-01  0.14180E-01  0.12553E-01  0.10532E-01
  0.84093E-02  0.64951E-02  0.49808E-02  0.39021E-02  0.32203E-02  0.29094E-02
  0.29839E-02  0.34810E-02  0.44257E-02  0.57993E-02  0.75431E-02  0.95650E-02
  0.10007E-01  0.12109E-01  0.13992E-01  0.15288E-01  0.15777E-01  0.15475E-01
  0.14504E-01  0.12970E-01  0.11012E-01  0.89034E-02  0.69772E-02  0.54481E-02
  0.43525E-02  0.36446E-02  0.33040E-02  0.33623E-02  0.38687E-02  0.48425E-02
  0.62444E-02  0.79969E-02  0.10007E-01  0.95650E-02  0.11692E-01  0.13617E-01
  0.14974E-01  0.15517E-01  0.15216E-01  0.14180E-01  0.12553E-01  0.10532E-01
  0.84093E-02  0.64952E-02  0.49808E-02  0.39021E-02  0.32203E-02  0.29095E-02
  0.29839E-02  0.34810E-02  0.44257E-02  0.57993E-02  0.75431E-02  0.95650E-02
  0.83301E-02  0.10518E-01  0.12533E-01  0.14010E-01  0.14649E-01  0.14327E-01
  0.13129E-01  0.11298E-01  0.91619E-02  0.70428E-02  0.51889E-02  0.37373E-02
  0.27230E-02  0.21173E-02  0.18747E-02  0.19711E-02  0.24234E-02  0.32762E-02
  0.45653E-02  0.62797E-02  0.83301E-02  0.65220E-02  0.87594E-02  0.10841E-01
  0.12388E-01  0.13054E-01  0.12651E-01  0.11272E-01  0.92784E-02  0.71084E-02
  0.50860E-02  0.33875E-02  0.21019E-02  0.12570E-02  0.80433E-03  0.64957E-03
  0.73029E-03  0.10630E-02  0.17336E-02  0.28517E-02  0.44738E-02  0.65220E-02
  0.44165E-02  0.66109E-02  0.86915E-02  0.10221E-01  0.10816E-01  0.10287E-01
  0.87870E-02  0.67661E-02  0.47073E-02  0.29148E-02  0.15272E-02  0.61125E-03
  0.15434E-03  0.15862E-04  0.40151E-06  0.66436E-05  0.86450E-04  0.40339E-03
  0.11634E-02  0.25132E-02  0.44165E-02  0.23619E-02  0.43287E-02  0.63145E-02
  0.77760E-02  0.82615E-02  0.76165E-02  0.60894E-02  0.41906E-02  0.24063E-02
  0.10354E-02  0.22179E-03 -0.31231E-05 -0.25918E-03 -0.68029E-03 -0.91115E-03
 -0.77786E-03 -0.38457E-03 -0.39990E-04  0.11303E-03  0.87487E-03  0.23619E-02
  0.79042E-03  0.22850E-02  0.40464E-02  0.54012E-02  0.57808E-02  0.50636E-02
  0.36136E-02  0.19994E-02  0.70912E-03  0.51188E-04 -0.15778E-03 -0.97515E-03
 -0.22346E-02 -0.34650E-02 -0.41168E-02 -0.38286E-02 -0.26961E-02 -0.12725E-02
 -0.23783E-03  0.41932E-04  0.79042E-03  0.50670E-04  0.85525E-03  0.22407E-02
  0.34216E-02  0.36906E-02  0.29530E-02  0.16995E-02  0.55867E-03  0.10970E-04
 -0.33321E-03 -0.15625E-02 -0.35048E-02 -0.58254E-02 -0.80359E-02 -0.93889E-02
 -0.91143E-02 -0.71062E-02 -0.42420E-02 -0.17288E-02 -0.28571E-03  0.50670E-04
 -0.35779E-03  0.39947E-04  0.75295E-03  0.16097E-02  0.17182E-02  0.10384E-02
  0.25040E-03 -0.19945E-04 -0.70554E-03 -0.23845E-02 -0.48641E-02 -0.78771E-02
 -0.11336E-01 -0.15042E-01 -0.17963E-01 -0.18332E-01 -0.15319E-01 -0.10268E-01
 -0.54408E-02 -0.20951E-02 -0.35779E-03 -0.17843E-02 -0.20221E-03  0.92018E-04
  0.54480E-03  0.53468E-03  0.10916E-03 -0.90362E-04 -0.10228E-02 -0.29520E-02
 -0.56229E-02 -0.86541E-02 -0.11979E-01 -0.16124E-01 -0.21452E-01 -0.26651E-01
 -0.28542E-01 -0.25013E-01 -0.17785E-01 -0.10484E-01 -0.51199E-02 -0.17843E-02
 -0.34259E-02 -0.81542E-03 -0.86926E-05  0.12663E-03  0.88940E-04 -0.38987E-04
 -0.84215E-03 -0.27876E-02 -0.55371E-02 -0.85539E-02 -0.11439E-01 -0.14496E-01
 -0.18891E-01 -0.25521E-01 -0.32900E-01 -0.36561E-01 -0.33047E-01 -0.24244E-01
 -0.14992E-01 -0.80265E-02 -0.34259E-02 -0.41460E-02 -0.11362E-02 -0.55967E-04
  0.46370E-04  0.18416E-04 -0.15847E-03 -0.13283E-02 -0.36768E-02 -0.66885E-02
 -0.97259E-02 -0.12426E-01 -0.15279E-01 -0.19715E-01 -0.26846E-01 -0.35136E-01
 -0.39599E-01 -0.36188E-01 -0.26818E-01 -0.16817E-01 -0.92338E-02 -0.41460E-02
 -0.34259E-02 -0.81539E-03 -0.86882E-05  0.12665E-03  0.88960E-04 -0.38975E-04
 -0.84211E-03 -0.27876E-02 -0.55371E-02 -0.85539E-02 -0.11439E-01 -0.14496E-01
 -0.18891E-01 -0.25521E-01 -0.32900E-01 -0.36561E-01 -0.33047E-01 -0.24245E-01
 -0.14992E-01 -0.80265E-02 -0.34259E-02 -0.17843E-02 -0.20219E-03  0.92041E-04
  0.54487E-03  0.53476E-03  0.10919E-03 -0.90342E-04 -0.10228E-02 -0.29520E-02
 -0.56230E-02 -0.86543E-02 -0.11979E-01 -0.16125E-01 -0.21453E-01 -0.26652E-01
 -0.28542E-01 -0.25013E-01 -0.17785E-01 -0.10484E-01 -0.51199E-02 -0.17843E-02
 -0.35778E-03  0.39957E-04  0.75302E-03  0.16098E-02  0.17183E-02  0.10385E-02
  0.25043E-03 -0.19941E-04 -0.70555E-03 -0.23846E-02 -0.48643E-02 -0.78774E-02
 -0.11336E-01 -0.15043E-01 -0.17963E-01 -0.18332E-01 -0.15319E-01 -0.10268E-01
 -0.54409E-02 -0.20951E-02 -0.35778E-03  0.50675E-04  0.85529E-03  0.22408E-02
  0.34218E-02  0.36908E-02  0.29531E-02  0.16996E-02  0.55869E-03  0.10969E-04
 -0.33324E-03 -0.15625E-02 -0.35050E-02 -0.58257E-02 -0.80363E-02 -0.93893E-02
 -0.91146E-02 -0.71065E-02 -0.42421E-02 -0.17288E-02 -0.28572E-03  0.50675E-04
  0.10254E-02  0.26138E-02  0.44199E-02  0.58030E-02  0.62185E-02  0.55295E-02
  0.40660E-02  0.23815E-02  0.96942E-03  0.14569E-03 -0.52874E-04 -0.65496E-03
 -0.17013E-02 -0.27421E-02 -0.32748E-02 -0.30015E-02 -0.20370E-02 -0.87365E-03
 -0.10234E-03  0.12176E-03  0.10254E-02  0.28511E-02  0.48710E-02  0.68908E-02
  0.83962E-02  0.89393E-02  0.83415E-02  0.68210E-02  0.48757E-02  0.29952E-02
  0.14822E-02  0.48023E-03  0.35711E-04 -0.58509E-04 -0.28903E-03 -0.42725E-03
 -0.33518E-03 -0.10918E-03  0.38073E-05  0.31435E-03  0.12566E-02  0.28511E-02
  0.49445E-02  0.71257E-02  0.92090E-02  0.10761E-01  0.11389E-01  0.10904E-01
  0.94512E-02  0.74531E-02  0.53703E-02  0.35100E-02  0.20240E-02  0.98566E-03
  0.39403E-03  0.14316E-03  0.78523E-04  0.11555E-03  0.29349E-03  0.74277E-03
  0.16216E-02  0.30351E-02  0.49445E-02  0.68281E-02  0.90083E-02  0.11034E-01
  0.12519E-01  0.13140E-01  0.12758E-01  0.11479E-01  0.96021E-02  0.74945E-02
  0.54730E-02  0.37517E-02  0.24415E-02  0.15645E-02  0.10726E-02  0.88978E-03
  0.96996E-03  0.13329E-02  0.20522E-02  0.32072E-02  0.48247E-02  0.68281E-02
  0.81397E-02  0.10262E-01  0.12175E-01  0.13524E-01  0.14064E-01  0.13743E-01
  0.12655E-01  0.10972E-01  0.89373E-02  0.68614E-02  0.50344E-02  0.36193E-02
  0.26376E-02  0.20399E-02  0.17800E-02  0.18487E-02  0.22798E-02  0.31272E-02
  0.44189E-02  0.61243E-02  0.81397E-02  0.86124E-02  0.10704E-01  0.12560E-01
  0.13837E-01  0.14330E-01  0.14027E-01  0.13022E-01  0.11433E-01  0.94457E-02
  0.73623E-02  0.55060E-02  0.40649E-02  0.30588E-02  0.24307E-02  0.21405E-02
  0.21958E-02  0.26416E-02  0.35283E-02  0.48650E-02  0.65981E-02  0.86124E-02
  0.81397E-02  0.10262E-01  0.12175E-01  0.13524E-01  0.14064E-01  0.13743E-01
  0.12655E-01  0.10972E-01  0.89374E-02  0.68615E-02  0.50344E-02  0.36193E-02
  0.26376E-02  0.20400E-02  0.17801E-02  0.18488E-02  0.22798E-02  0.31272E-02
  0.44189E-02  0.61243E-02  0.81397E-02  0.68281E-02  0.90083E-02  0.11034E-01
  0.12519E-01  0.13140E-01  0.12758E-01  0.11479E-01  0.96020E-02  0.74945E-02
  0.54730E-02  0.37517E-02  0.24416E-02  0.15645E-02  0.10726E-02  0.88982E-03
  0.97000E-03  0.13329E-02  0.20522E-02  0.32072E-02  0.48247E-02  0.68281E-02
  0.49445E-02  0.71256E-02  0.92089E-02  0.10760E-01  0.11389E-01  0.10904E-01
  0.94512E-02  0.74531E-02  0.53704E-02  0.35100E-02  0.20241E-02  0.98571E-03
  0.39407E-03  0.14318E-03  0.78542E-04  0.11557E-03  0.29351E-03  0.74280E-03
  0.16217E-02  0.30351E-02  0.49445E-02  0.28511E-02  0.48709E-02  0.68907E-02
  0.83960E-02  0.89392E-02  0.83414E-02  0.68209E-02  0.48757E-02  0.29952E-02
  0.14823E-02  0.48027E-03  0.35725E-04 -0.58488E-04 -0.28898E-03 -0.42719E-03
 -0.33514E-03 -0.10916E-03  0.38102E-05  0.31437E-03  0.12567E-02  0.28511E-02
  0.10254E-02  0.26138E-02  0.44198E-02  0.58028E-02  0.62184E-02  0.55294E-02
  0.40659E-02  0.23815E-02  0.96943E-03  0.14570E-03 -0.52860E-04 -0.65488E-03
 -0.17012E-02 -0.27419E-02 -0.32746E-02 -0.30014E-02 -0.20369E-02 -0.87360E-03
 -0.10233E-03  0.12176E-03  0.10254E-02  0.50670E-04  0.85525E-03  0.22407E-02
  0.34216E-02  0.36906E-02  0.29530E-02  0.16995E-02  0.55867E-03  0.10970E-04
 -0.33321E-03 -0.15625E-02 -0.35048E-02 -0.58254E-02 -0.80359E-02 -0.93889E-02
 -0.91143E-02 -0.71062E-02 -0.42420E-02 -0.17288E-02 -0.28571E-03  0.50670E-04
 -0.12754E-03  0.16764E-03  0.10908E-02  0.20414E-02  0.21978E-02  0.14996E-02
  0.55321E-03  0.16570E-04 -0.31397E-03 -0.16152E-02 -0.37992E-02 -0.65787E-02
 -0.97338E-02 -0.12948E-01 -0.15296E-01 -0.15381E-01 -0.12643E-01 -0.82676E-02
 -0.41561E-02 -0.13954E-02 -0.12754E-03 -0.17843E-02 -0.20221E-03  0.92014E-04
  0.54479E-03  0.53467E-03  0.10915E-03 -0.90365E-04 -0.10228E-02 -0.29520E-02
 -0.56229E-02 -0.86541E-02 -0.11979E-01 -0.16124E-01 -0.21452E-01 -0.26651E-01
 -0.28542E-01 -0.25013E-01 -0.17785E-01 -0.10484E-01 -0.51199E-02 -0.17843E-02
 -0.49555E-02 -0.15158E-02 -0.13986E-03  0.77498E-05 -0.18177E-06 -0.35130E-03
 -0.19329E-02 -0.47149E-02 -0.79477E-02 -0.10891E-01 -0.13280E-01 -0.15861E-01
 -0.20334E-01 -0.28004E-01 -0.37251E-01 -0.42529E-01 -0.39218E-01 -0.29316E-01
 -0.18650E-01 -0.10518E-01 -0.49555E-02 -0.81559E-02 -0.31837E-02 -0.73718E-03
 -0.15410E-03 -0.34470E-03 -0.17457E-02 -0.50722E-02 -0.94233E-02 -0.13163E-01
 -0.15326E-01 -0.16189E-01 -0.17482E-01 -0.21855E-01 -0.31366E-01 -0.44338E-01
 -0.53212E-01 -0.50825E-01 -0.39115E-01 -0.25829E-01 -0.15500E-01 -0.81559E-02
 -0.95107E-02 -0.39393E-02 -0.10726E-02 -0.32693E-03 -0.64911E-03 -0.25657E-02
 -0.66766E-02 -0.11639E-01 -0.15426E-01 -0.17048E-01 -0.17115E-01 -0.17797E-01
 -0.22071E-01 -0.32270E-01 -0.46759E-01 -0.57200E-01 -0.55335E-01 -0.43003E-01
 -0.28721E-01 -0.17545E-01 -0.95107E-02 -0.81558E-02 -0.31836E-02 -0.73712E-03
 -0.15406E-03 -0.34464E-03 -0.17455E-02 -0.50720E-02 -0.94232E-02 -0.13163E-01
 -0.15326E-01 -0.16189E-01 -0.17482E-01 -0.21855E-01 -0.31367E-01 -0.44338E-01
 -0.53213E-01 -0.50825E-01 -0.39115E-01 -0.25829E-01 -0.15500E-01 -0.81558E-02
 -0.49554E-02 -0.15157E-02 -0.13981E-03  0.77634E-05 -0.17952E-06 -0.35122E-03
 -0.19328E-02 -0.47148E-02 -0.79476E-02 -0.10891E-01 -0.13281E-01 -0.15861E-01
 -0.20335E-01 -0.28005E-01 -0.37252E-01 -0.42530E-01 -0.39218E-01 -0.29317E-01
 -0.18650E-01 -0.10518E-01 -0.49554E-02 -0.17843E-02 -0.20218E-03  0.92049E-04
  0.54490E-03  0.53479E-03  0.10920E-03 -0.90335E-04 -0.10228E-02 -0.29520E-02
 -0.56230E-02 -0.86544E-02 -0.11979E-01 -0.16125E-01 -0.21453E-01 -0.26652E-01
 -0.28543E-01 -0.25014E-01 -0.17785E-01 -0.10484E-01 -0.51199E-02 -0.17843E-02
 -0.12753E-03  0.16766E-03  0.10909E-02  0.20416E-02  0.21980E-02  0.14997E-02
  0.55326E-03  0.16575E-04 -0.31397E-03 -0.16153E-02 -0.37993E-02 -0.65790E-02
 -0.97343E-02 -0.12948E-01 -0.15296E-01 -0.15382E-01 -0.12644E-01 -0.82678E-02
 -0.41562E-02 -0.13955E-02 -0.12753E-03  0.31905E-03  0.14862E-02  0.30561E-02
  0.43188E-02  0.46583E-02  0.39579E-02  0.26142E-02  0.12091E-02  0.23983E-03
 -0.27854E-04 -0.67827E-03 -0.20572E-02 -0.38253E-02 -0.54757E-02 -0.63851E-02
 -0.60550E-02 -0.45212E-02 -0.24677E-02 -0.78119E-03 -0.23127E-04  0.31905E-03
  0.18081E-02  0.36192E-02  0.55276E-02  0.69662E-02  0.74485E-02  0.68147E-02
  0.53289E-02  0.35089E-02  0.18426E-02  0.64045E-03  0.53615E-04 -0.97026E-04
 -0.59950E-03 -0.11982E-02 -0.14985E-02 -0.13092E-02 -0.75234E-03 -0.18399E-03
  0.15056E-04  0.53695E-03  0.18081E-02  0.38124E-02  0.59061E-02  0.79464E-02
  0.94641E-02  0.10043E-01  0.95030E-02  0.80261E-02  0.60704E-02  0.41024E-02
  0.24156E-02  0.11510E-02  0.37216E-03  0.45946E-04 -0.32195E-05 -0.26484E-04
 -0.91285E-05  0.16205E-04  0.22879E-03  0.85872E-03  0.20565E-02  0.38124E-02
  0.56985E-02  0.78455E-02  0.98585E-02  0.11337E-01  0.11939E-01  0.11513E-01
  0.10181E-01  0.82876E-02  0.62322E-02  0.43212E-02  0.27379E-02  0.15746E-02
  0.84286E-03  0.47068E-03  0.34745E-03  0.40708E-03  0.67583E-03  0.12549E-02
  0.22633E-02  0.37649E-02  0.56985E-02  0.70243E-02  0.91248E-02  0.11029E-01
  0.12389E-01  0.12949E-01  0.12618E-01  0.11478E-01  0.97415E-02  0.77049E-02
  0.56908E-02  0.39602E-02  0.26490E-02  0.17695E-02  0.12628E-02  0.10601E-02
  0.11289E-02  0.14969E-02  0.22381E-02  0.34211E-02  0.50498E-02  0.70243E-02
  0.75018E-02  0.95705E-02  0.11415E-01  0.12710E-01  0.13239E-01  0.12945E-01
  0.11894E-01  0.10239E-01  0.82264E-02  0.61828E-02  0.44075E-02  0.30596E-02
  0.21478E-02  0.16075E-02  0.13779E-02  0.14410E-02  0.18320E-02  0.26206E-02
  0.38577E-02  0.55233E-02  0.75018E-02  0.70243E-02  0.91248E-02  0.11029E-01
  0.12389E-01  0.12949E-01  0.12618E-01  0.11478E-01  0.97415E-02  0.77049E-02
  0.56908E-02  0.39602E-02  0.26491E-02  0.17695E-02  0.12628E-02  0.10602E-02
  0.11290E-02  0.14969E-02  0.22381E-02  0.34212E-02  0.50498E-02  0.70243E-02
  0.56985E-02  0.78455E-02  0.98584E-02  0.11337E-01  0.11939E-01  0.11513E-01
  0.10181E-01  0.82876E-02  0.62322E-02  0.43212E-02  0.27379E-02  0.15746E-02
  0.84290E-03  0.47072E-03  0.34748E-03  0.40711E-03  0.67586E-03  0.12549E-02
  0.22633E-02  0.37650E-02  0.56985E-02  0.38124E-02  0.59061E-02  0.79463E-02
  0.94639E-02  0.10043E-01  0.95028E-02  0.80260E-02  0.60703E-02  0.41024E-02
  0.24157E-02  0.11511E-02  0.37219E-03  0.45961E-04 -0.32151E-05 -0.26471E-04
 -0.91220E-05  0.16212E-04  0.22881E-03  0.85874E-03  0.20566E-02  0.38124E-02
  0.18081E-02  0.36191E-02  0.55275E-02  0.69661E-02  0.74483E-02  0.68146E-02
  0.53288E-02  0.35088E-02  0.18426E-02  0.64048E-03  0.53629E-04 -0.96999E-04
 -0.59942E-03 -0.11981E-02 -0.14984E-02 -0.13091E-02 -0.75227E-03 -0.18396E-03
  0.15059E-04  0.53695E-03  0.18081E-02  0.31903E-03  0.14861E-02  0.30560E-02
  0.43186E-02  0.46581E-02  0.39578E-02  0.26141E-02  0.12091E-02  0.23984E-03
 -0.27847E-04 -0.67821E-03 -0.20570E-02 -0.38251E-02 -0.54754E-02 -0.63848E-02
 -0.60547E-02 -0.45210E-02 -0.24676E-02 -0.78117E-03 -0.23126E-04  0.31903E-03
 -0.12754E-03  0.16764E-03  0.10908E-02  0.20414E-02  0.21978E-02  0.14996E-02
  0.55321E-03  0.16570E-04 -0.31397E-03 -0.16152E-02 -0.37992E-02 -0.65787E-02
 -0.97338E-02 -0.12948E-01 -0.15296E-01 -0.15381E-01 -0.12643E-01 -0.82676E-02
 -0.41561E-02 -0.13954E-02 -0.12754E-03 -0.57193E-03  0.32053E-05  0.53752E-03
  0.12862E-02  0.13621E-02  0.74272E-03  0.10905E-03 -0.10397E-03 -0.10617E-02
 -0.30235E-02 -0.57374E-02 -0.89138E-02 -0.12543E-01 -0.16544E-01 -0.19867E-01
 -0.20504E-01 -0.17367E-01 -0.11838E-01 -0.64488E-02 -0.26454E-02 -0.57193E-03
 -0.34259E-02 -0.81544E-03 -0.86956E-05  0.12661E-03  0.88926E-04 -0.38995E-04
 -0.84218E-03 -0.27876E-02 -0.55371E-02 -0.85538E-02 -0.11439E-01 -0.14496E-01
 -0.18890E-01 -0.25520E-01 -0.32899E-01 -0.36561E-01 -0.33047E-01 -0.24244E-01
 -0.14992E-01 -0.80265E-02 -0.34259E-02 -0.81559E-02 -0.31838E-02 -0.73720E-03
 -0.15412E-03 -0.34472E-03 -0.17457E-02 -0.50722E-02 -0.94233E-02 -0.13163E-01
 -0.15326E-01 -0.16189E-01 -0.17482E-01 -0.21854E-01 -0.31366E-01 -0.44337E-01
 -0.53212E-01 -0.50825E-01 -0.39115E-01 -0.25829E-01 -0.15500E-01 -0.81559E-02
 -0.12758E-01 -0.58238E-02 -0.19957E-02 -0.91232E-03 -0.16414E-02 -0.49354E-02
 -0.11031E-01 -0.17363E-01 -0.20916E-01 -0.20830E-01 -0.18744E-01 -0.17912E-01
 -0.21894E-01 -0.33573E-01 -0.51525E-01 -0.65705E-01 -0.65255E-01 -0.51704E-01
 -0.35308E-01 -0.22311E-01 -0.12758E-01 -0.14685E-01 -0.69819E-02 -0.26131E-02
 -0.13613E-02 -0.23955E-02 -0.66072E-02 -0.13949E-01 -0.21036E-01 -0.24254E-01
 -0.22932E-01 -0.19453E-01 -0.17707E-01 -0.21484E-01 -0.33939E-01 -0.53875E-01
 -0.70322E-01 -0.70844E-01 -0.56693E-01 -0.39123E-01 -0.25097E-01 -0.14685E-01
 -0.12758E-01 -0.58237E-02 -0.19955E-02 -0.91220E-03 -0.16412E-02 -0.49351E-02
 -0.11030E-01 -0.17362E-01 -0.20916E-01 -0.20830E-01 -0.18745E-01 -0.17912E-01
 -0.21895E-01 -0.33574E-01 -0.51526E-01 -0.65705E-01 -0.65256E-01 -0.51704E-01
 -0.35308E-01 -0.22311E-01 -0.12758E-01 -0.81558E-02 -0.31836E-02 -0.73707E-03
 -0.15404E-03 -0.34459E-03 -0.17455E-02 -0.50719E-02 -0.94231E-02 -0.13163E-01
 -0.15326E-01 -0.16189E-01 -0.17483E-01 -0.21855E-01 -0.31367E-01 -0.44339E-01
 -0.53213E-01 -0.50826E-01 -0.39115E-01 -0.25829E-01 -0.15500E-01 -0.81558E-02
 -0.34259E-02 -0.81536E-03 -0.86820E-05  0.12668E-03  0.88989E-04 -0.38958E-04
 -0.84206E-03 -0.27875E-02 -0.55371E-02 -0.85540E-02 -0.11439E-01 -0.14497E-01
 -0.18891E-01 -0.25522E-01 -0.32901E-01 -0.36562E-01 -0.33048E-01 -0.24245E-01
 -0.14992E-01 -0.80265E-02 -0.34259E-02 -0.57190E-03  0.32093E-05  0.53760E-03
  0.12863E-02  0.13623E-02  0.74283E-03  0.10908E-03 -0.10396E-03 -0.10617E-02
 -0.30236E-02 -0.57377E-02 -0.89143E-02 -0.12544E-01 -0.16545E-01 -0.19868E-01
 -0.20505E-01 -0.17367E-01 -0.11839E-01 -0.64489E-02 -0.26454E-02 -0.57190E-03
  0.70110E-04  0.90795E-03  0.22782E-02  0.34287E-02  0.37039E-02  0.30082E-02
  0.17831E-02  0.62361E-03  0.22191E-04 -0.28883E-03 -0.14775E-02 -0.33794E-02
 -0.56315E-02 -0.77418E-02 -0.90088E-02 -0.87248E-02 -0.67928E-02 -0.40342E-02
 -0.16098E-02 -0.24043E-03  0.70110E-04  0.12516E-02  0.28979E-02  0.47048E-02
  0.60741E-02  0.65041E-02  0.58545E-02  0.44161E-02  0.27111E-02  0.12233E-02
  0.27064E-03 -0.58554E-05 -0.41357E-03 -0.12666E-02 -0.21415E-02 -0.25799E-02
 -0.23339E-02 -0.15236E-02 -0.58285E-03 -0.29741E-04  0.22564E-03  0.12516E-02
  0.31510E-02  0.51695E-02  0.71618E-02  0.86393E-02  0.91782E-02  0.86077E-02
  0.71328E-02  0.52258E-02  0.33526E-02  0.17996E-02  0.70488E-03  0.12601E-03
 -0.37037E-05 -0.12024E-03 -0.21086E-03 -0.15093E-03 -0.23193E-04  0.48513E-04
  0.48342E-03  0.15148E-02  0.31510E-02  0.50009E-02  0.71124E-02  0.91092E-02
  0.10582E-01  0.11176E-01  0.10726E-01  0.93644E-02  0.74676E-02  0.54555E-02
  0.36276E-02  0.21485E-02  0.10996E-02  0.48336E-03  0.20510E-03  0.12596E-03
  0.16756E-03  0.36388E-03  0.83541E-03  0.17278E-02  0.31321E-02  0.50009E-02
  0.63037E-02  0.83780E-02  0.10282E-01  0.11668E-01  0.12259E-01  0.11930E-01
  0.10750E-01  0.89688E-02  0.69289E-02  0.49613E-02  0.33049E-02  0.20762E-02
  0.12800E-02  0.84671E-03  0.68884E-03  0.75894E-03  0.10818E-02  0.17419E-02
  0.28314E-02  0.43809E-02  0.63037E-02  0.67708E-02  0.88132E-02  0.10661E-01
  0.11996E-01  0.12575E-01  0.12295E-01  0.11204E-01  0.94892E-02  0.74524E-02
  0.54385E-02  0.37267E-02  0.24537E-02  0.16195E-02  0.11510E-02  0.97048E-03
  0.10429E-02  0.13967E-02  0.21096E-02  0.32561E-02  0.48441E-02  0.67708E-02
  0.63037E-02  0.83780E-02  0.10282E-01  0.11668E-01  0.12259E-01  0.11930E-01
  0.10750E-01  0.89688E-02  0.69289E-02  0.49613E-02  0.33049E-02  0.20762E-02
  0.12800E-02  0.84673E-03  0.68886E-03  0.75896E-03  0.10818E-02  0.17419E-02
  0.28314E-02  0.43809E-02  0.63037E-02  0.50009E-02  0.71123E-02  0.91091E-02
  0.10582E-01  0.11175E-01  0.10726E-01  0.93643E-02  0.74676E-02  0.54555E-02
  0.36277E-02  0.21486E-02  0.10996E-02  0.48340E-03  0.20512E-03  0.12598E-03
  0.16758E-03  0.36390E-03  0.83544E-03  0.17278E-02  0.31321E-02  0.50009E-02
  0.31510E-02  0.51694E-02  0.71617E-02  0.86392E-02  0.91781E-02  0.86076E-02
  0.71327E-02  0.52258E-02  0.33526E-02  0.17996E-02  0.70492E-03  0.12603E-03
 -0.36988E-05 -0.12021E-03 -0.21082E-03 -0.15090E-03 -0.23184E-04  0.48523E-04
  0.48344E-03  0.15148E-02  0.31510E-02  0.12516E-02  0.28978E-02  0.47046E-02
  0.60740E-02  0.65039E-02  0.58543E-02  0.44160E-02  0.27110E-02  0.12233E-02
  0.27066E-03 -0.58502E-05 -0.41351E-03 -0.12665E-02 -0.21413E-02 -0.25797E-02
 -0.23337E-02 -0.15235E-02 -0.58280E-03 -0.29736E-04  0.22564E-03  0.12516E-02
  0.70103E-04  0.90790E-03  0.22781E-02  0.34285E-02  0.37037E-02  0.30080E-02
  0.17830E-02  0.62359E-03  0.22193E-04 -0.28880E-03 -0.14774E-02 -0.33792E-02
 -0.56312E-02 -0.77414E-02 -0.90084E-02 -0.87245E-02 -0.67925E-02 -0.40340E-02
 -0.16098E-02 -0.24043E-03  0.70103E-04 -0.57193E-03  0.32053E-05  0.53752E-03
  0.12862E-02  0.13621E-02  0.74272E-03  0.10905E-03 -0.10397E-03 -0.10617E-02
 -0.30235E-02 -0.57374E-02 -0.89138E-02 -0.12543E-01 -0.16544E-01 -0.19867E-01
 -0.20504E-01 -0.17367E-01 -0.11838E-01 -0.64488E-02 -0.26454E-02 -0.57193E-03
 -0.80681E-03 -0.47179E-05  0.38708E-03  0.10560E-02  0.11049E-02  0.52826E-03
  0.30971E-04 -0.23943E-03 -0.14421E-02 -0.36236E-02 -0.64854E-02 -0.97560E-02
 -0.13530E-01 -0.17834E-01 -0.21572E-01 -0.22483E-01 -0.19237E-01 -0.13277E-01
 -0.73938E-02 -0.31880E-02 -0.80681E-03 -0.41460E-02 -0.11362E-02 -0.55979E-04
  0.46355E-04  0.18406E-04 -0.15850E-03 -0.13284E-02 -0.36768E-02 -0.66885E-02
 -0.97259E-02 -0.12425E-01 -0.15279E-01 -0.19715E-01 -0.26845E-01 -0.35135E-01
 -0.39598E-01 -0.36188E-01 -0.26817E-01 -0.16817E-01 -0.92338E-02 -0.41460E-02
 -0.95108E-02 -0.39393E-02 -0.10727E-02 -0.32697E-03 -0.64918E-03 -0.25659E-02
 -0.66767E-02 -0.11639E-01 -0.15426E-01 -0.17048E-01 -0.17115E-01 -0.17797E-01
 -0.22070E-01 -0.32270E-01 -0.46758E-01 -0.57199E-01 -0.55334E-01 -0.43003E-01
 -0.28721E-01 -0.17545E-01 -0.95108E-02 -0.14685E-01 -0.69819E-02 -0.26132E-02
 -0.13614E-02 -0.23956E-02 -0.66073E-02 -0.13949E-01 -0.21036E-01 -0.24254E-01
 -0.22932E-01 -0.19453E-01 -0.17707E-01 -0.21484E-01 -0.33939E-01 -0.53874E-01
 -0.70322E-01 -0.70844E-01 -0.56693E-01 -0.39123E-01 -0.25097E-01 -0.14685E-01
 -0.16848E-01 -0.83070E-02 -0.33514E-02 -0.19354E-02 -0.33615E-02 -0.86818E-02
 -0.17480E-01 -0.25366E-01 -0.28049E-01 -0.25168E-01 -0.20050E-01 -0.17291E-01
 -0.20826E-01 -0.34070E-01 -0.56156E-01 -0.75155E-01 -0.76846E-01 -0.62117E-01
 -0.43309E-01 -0.28183E-01 -0.16848E-01 -0.14685E-01 -0.69818E-02 -0.26130E-02
 -0.13612E-02 -0.23953E-02 -0.66070E-02 -0.13949E-01 -0.21036E-01 -0.24254E-01
 -0.22932E-01 -0.19453E-01 -0.17708E-01 -0.21485E-01 -0.33940E-01 -0.53876E-01
 -0.70323E-01 -0.70844E-01 -0.56693E-01 -0.39123E-01 -0.25097E-01 -0.14685E-01
 -0.95106E-02 -0.39391E-02 -0.10725E-02 -0.32684E-03 -0.64898E-03 -0.25655E-02
 -0.66763E-02 -0.11639E-01 -0.15426E-01 -0.17048E-01 -0.17115E-01 -0.17798E-01
 -0.22071E-01 -0.32271E-01 -0.46760E-01 -0.57201E-01 -0.55335E-01 -0.43003E-01
 -0.28721E-01 -0.17545E-01 -0.95106E-02 -0.41459E-02 -0.11361E-02 -0.55941E-04
  0.46401E-04  0.18438E-04 -0.15842E-03 -0.13282E-02 -0.36767E-02 -0.66885E-02
 -0.97261E-02 -0.12426E-01 -0.15280E-01 -0.19716E-01 -0.26847E-01 -0.35137E-01
 -0.39600E-01 -0.36189E-01 -0.26818E-01 -0.16817E-01 -0.92338E-02 -0.41459E-02
 -0.80678E-03 -0.47127E-05  0.38716E-03  0.10562E-02  0.11051E-02  0.52836E-03
  0.30988E-04 -0.23941E-03 -0.14421E-02 -0.36237E-02 -0.64857E-02 -0.97565E-02
 -0.13531E-01 -0.17835E-01 -0.21573E-01 -0.22484E-01 -0.19237E-01 -0.13278E-01
 -0.73939E-02 -0.31880E-02 -0.80678E-03  0.25429E-04  0.73892E-03  0.20315E-02
  0.31366E-02  0.33865E-02  0.26953E-02  0.15203E-02  0.45927E-03  0.73691E-06
 -0.44628E-03 -0.18266E-02 -0.39070E-02 -0.63260E-02 -0.86097E-02 -0.10030E-01
 -0.97869E-02 -0.77164E-02 -0.46881E-02 -0.19766E-02 -0.37193E-03  0.25429E-04
  0.10823E-02  0.26665E-02  0.44332E-02  0.57737E-02  0.61829E-02  0.55290E-02
  0.41116E-02  0.24529E-02  0.10349E-02  0.17784E-03 -0.34002E-04 -0.57553E-03
 -0.15563E-02 -0.25344E-02 -0.30295E-02 -0.27680E-02 -0.18638E-02 -0.77902E-03
 -0.76658E-04  0.14805E-03  0.10823E-02  0.29360E-02  0.49252E-02  0.68975E-02
  0.83580E-02  0.88814E-02  0.83017E-02  0.68305E-02  0.49442E-02  0.31074E-02
  0.16047E-02  0.57398E-03  0.70456E-04 -0.24771E-04 -0.20120E-03 -0.31754E-03
 -0.24199E-03 -0.63117E-04  0.16648E-04  0.37684E-03  0.13450E-02  0.29360E-02
  0.47655E-02  0.68618E-02  0.88518E-02  0.10323E-01  0.10915E-01  0.10458E-01
  0.90877E-02  0.71906E-02  0.51946E-02  0.33974E-02  0.19572E-02  0.95189E-03
  0.38012E-03  0.13751E-03  0.74404E-04  0.10861E-03  0.27767E-03  0.70893E-03
  0.15571E-02  0.29231E-02  0.47655E-02  0.60533E-02  0.81159E-02  0.10021E-01
  0.11421E-01  0.12027E-01  0.11700E-01  0.10505E-01  0.87065E-02  0.66643E-02
  0.47135E-02  0.30850E-02  0.18883E-02  0.11247E-02  0.71968E-03  0.57832E-03
  0.64871E-03  0.95522E-03  0.15852E-02  0.26380E-02  0.41541E-02  0.60533E-02
  0.65139E-02  0.85445E-02  0.10397E-01  0.11750E-01  0.12353E-01  0.12081E-01
  0.10974E-01  0.92345E-02  0.71871E-02  0.51838E-02  0.34959E-02  0.22522E-02
  0.14487E-02  0.10079E-02  0.84571E-03  0.92179E-03  0.12625E-02  0.19472E-02
  0.30575E-02  0.46116E-02  0.65139E-02  0.60533E-02  0.81159E-02  0.10021E-01
  0.11420E-01  0.12027E-01  0.11700E-01  0.10505E-01  0.87065E-02  0.66644E-02
  0.47136E-02  0.30850E-02  0.18883E-02  0.11248E-02  0.71970E-03  0.57834E-03
  0.64873E-03  0.95524E-03  0.15853E-02  0.26380E-02  0.41541E-02  0.60533E-02
  0.47655E-02  0.68618E-02  0.88517E-02  0.10323E-01  0.10915E-01  0.10458E-01
  0.90877E-02  0.71906E-02  0.51946E-02  0.33974E-02  0.19572E-02  0.95193E-03
  0.38015E-03  0.13753E-03  0.74419E-04  0.10863E-03  0.27769E-03  0.70895E-03
  0.15571E-02  0.29231E-02  0.47655E-02  0.29360E-02  0.49252E-02  0.68974E-02
  0.83578E-02  0.88813E-02  0.83015E-02  0.68304E-02  0.49441E-02  0.31074E-02
  0.16048E-02  0.57402E-03  0.70475E-04 -0.24758E-04 -0.20116E-03 -0.31750E-03
 -0.24196E-03 -0.63101E-04  0.16653E-04  0.37685E-03  0.13450E-02  0.29360E-02
  0.10822E-02  0.26665E-02  0.44331E-02  0.57735E-02  0.61827E-02  0.55288E-02
  0.41115E-02  0.24529E-02  0.10349E-02  0.17786E-03 -0.33989E-04 -0.57545E-03
 -0.15561E-02 -0.25343E-02 -0.30293E-02 -0.27679E-02 -0.18637E-02 -0.77897E-03
 -0.76649E-04  0.14805E-03  0.10822E-02  0.25425E-04  0.73887E-03  0.20314E-02
  0.31364E-02  0.33863E-02  0.26951E-02  0.15202E-02  0.45925E-03  0.73709E-06
 -0.44625E-03 -0.18265E-02 -0.39067E-02 -0.63256E-02 -0.86093E-02 -0.10029E-01
 -0.97865E-02 -0.77161E-02 -0.46879E-02 -0.19766E-02 -0.37193E-03  0.25425E-04
 -0.80681E-03 -0.47179E-05  0.38708E-03  0.10560E-02  0.11049E-02  0.52826E-03
  0.30971E-04 -0.23943E-03 -0.14421E-02 -0.36236E-02 -0.64854E-02 -0.97560E-02
 -0.13530E-01 -0.17834E-01 -0.21572E-01 -0.22483E-01 -0.19237E-01 -0.13277E-01
 -0.73938E-02 -0.31880E-02 -0.80681E-03 -0.57192E-03  0.32057E-05  0.53753E-03
  0.12862E-02  0.13622E-02  0.74273E-03  0.10906E-03 -0.10397E-03 -0.10617E-02
 -0.30236E-02 -0.57375E-02 -0.89139E-02 -0.12543E-01 -0.16544E-01 -0.19867E-01
 -0.20504E-01 -0.17367E-01 -0.11838E-01 -0.64488E-02 -0.26454E-02 -0.57192E-03
 -0.34259E-02 -0.81543E-03 -0.86940E-05  0.12662E-03  0.88934E-04 -0.38991E-04
 -0.84216E-03 -0.27876E-02 -0.55371E-02 -0.85539E-02 -0.11439E-01 -0.14496E-01