 CRYSTAL
 PRIMVEC
    6.350126503    0.000000000    0.000000000
    0.000000000    6.350126503    0.000000000
    0.000000000    0.000000000    6.350126503
 PRIMCOORD
           2           1
C         4.315929791    3.175063252    3.175063252
O         3.175063252    3.175063252    3.175063252
BEGIN_BLOCK_DATAGRID_3D
3D_PWSCF
DATAGRID_3D_UNKNOWN
          46          46          46
  0.000000  0.000000  0.000000
  6.350127  0.000000  0.000000
  0.000000  6.350127  0.000000
  0.000000  0.000000  6.350127
 -0.34651E-06  0.26582E-08  0.22450E-07 -0.79460E-07 -0.24688E-06 -0.21560E-07
  0.56512E-07  0.45653E-08 -0.22189E-06 -0.51998E-06 -0.18942E-06 -0.30435E-09
  0.21350E-08 -0.62634E-07 -0.24660E-06 -0.15267E-06 -0.11477E-07 -0.54675E-08
 -0.15836E-06 -0.47512E-06 -0.35186E-06 -0.97622E-07 -0.10253E-06 -0.42317E-06
 -0.71585E-06 -0.42591E-06 -0.15204E-06 -0.20563E-06 -0.55715E-06 -0.76300E-06
 -0.52108E-06 -0.32407E-06 -0.43871E-06 -0.80810E-06 -0.93406E-06 -0.51097E-06
 -0.13458E-06 -0.99845E-07 -0.40725E-06 -0.81688E-06 -0.48604E-06 -0.64912E-07
 -0.47816E-07 -0.47707E-06 -0.97069E-06 -0.34651E-06 -0.29219E-06 -0.14853E-08
  0.15241E-09 -0.13245E-06 -0.29285E-06 -0.58180E-07  0.78933E-08 -0.63521E-09
 -0.17871E-06 -0.35143E-06 -0.13583E-06 -0.46401E-08 -0.15693E-08 -0.73536E-07
 -0.21308E-06 -0.15185E-06 -0.31414E-07 -0.21195E-07 -0.15102E-06 -0.37533E-06
 -0.28573E-06 -0.95848E-07 -0.10060E-06 -0.34290E-06 -0.55577E-06 -0.35636E-06
 -0.16188E-06 -0.21918E-06 -0.48913E-06 -0.61764E-06 -0.43757E-06 -0.30118E-06
 -0.38597E-06 -0.63633E-06 -0.74170E-06 -0.48977E-06 -0.20286E-06 -0.15688E-06
 -0.38787E-06 -0.67956E-06 -0.43650E-06 -0.85874E-07 -0.57639E-07 -0.37071E-06
 -0.72496E-06 -0.29219E-06 -0.17466E-06 -0.47033E-07 -0.66029E-07 -0.24002E-06
 -0.33572E-06 -0.16840E-06 -0.49345E-07 -0.44309E-07 -0.78182E-07 -0.73109E-07
 -0.41609E-07 -0.34547E-07 -0.54631E-07 -0.92363E-07 -0.13736E-06 -0.16672E-06
 -0.15668E-06 -0.14159E-06 -0.16752E-06 -0.20420E-06 -0.17020E-06 -0.10806E-06
 -0.11389E-06 -0.20245E-06 -0.27323E-06 -0.24353E-06 -0.22290E-06 -0.28599E-06
 -0.35633E-06 -0.33173E-06 -0.27877E-06 -0.28162E-06 -0.31948E-06 -0.36016E-06
 -0.43456E-06 -0.52694E-06 -0.51814E-06 -0.41830E-06 -0.38271E-06 -0.41457E-06
 -0.33829E-06 -0.16906E-06 -0.11285E-06 -0.20893E-06 -0.30741E-06 -0.17466E-06
 -0.91662E-07 -0.11969E-06 -0.18096E-06 -0.23167E-06 -0.23043E-06 -0.21687E-06
 -0.20457E-06 -0.11935E-06 -0.13299E-07  0.19751E-08 -0.42941E-08 -0.10550E-06
 -0.17657E-06 -0.88442E-07 -0.56976E-07 -0.18293E-06 -0.44938E-06 -0.46435E-06
 -0.22562E-06 -0.93305E-07 -0.10134E-06 -0.17265E-06 -0.19207E-06 -0.13800E-06
 -0.11901E-06 -0.21370E-06 -0.41419E-06 -0.47292E-06 -0.28727E-06 -0.15327E-06
 -0.20607E-06 -0.37881E-06 -0.38468E-06 -0.24115E-06 -0.28073E-06 -0.69326E-06
 -0.11668E-05 -0.94428E-06 -0.41923E-06 -0.21717E-06 -0.26761E-06 -0.34852E-06
 -0.28313E-06 -0.16423E-06 -0.10201E-06 -0.91662E-07 -0.97817E-07 -0.18706E-06
 -0.21165E-06 -0.12672E-06 -0.77641E-07 -0.13411E-06 -0.25143E-06 -0.17502E-06
 -0.99882E-08  0.98309E-08 -0.10443E-07 -0.22478E-06 -0.29545E-06 -0.67287E-07
 -0.73035E-08 -0.11889E-06 -0.56437E-06 -0.64349E-06 -0.21334E-06 -0.33762E-07
 -0.82956E-07 -0.32666E-06 -0.40260E-06 -0.18809E-06 -0.10393E-06 -0.29779E-06
 -0.76754E-06 -0.80987E-06 -0.35378E-06 -0.15177E-06 -0.32610E-06 -0.74459E-06
 -0.68330E-06 -0.28376E-06 -0.23585E-06 -0.75677E-06 -0.15218E-05 -0.12141E-05
 -0.39598E-06 -0.13343E-06 -0.27139E-06 -0.59280E-06 -0.56271E-06 -0.24547E-06
 -0.88090E-07 -0.97817E-07 -0.23476E-06 -0.32679E-06 -0.24592E-06 -0.73728E-07
 -0.13921E-07 -0.42701E-07 -0.18403E-06 -0.24637E-06 -0.10022E-06 -0.24564E-07
 -0.85353E-07 -0.33600E-06 -0.36837E-06 -0.78369E-07 -0.37430E-10 -0.22736E-07
 -0.26514E-06 -0.36228E-06 -0.10047E-06 -0.11006E-07 -0.10478E-06 -0.54561E-06
 -0.72392E-06 -0.35467E-06 -0.18192E-06 -0.44244E-06 -0.10725E-05 -0.11154E-05
 -0.54569E-06 -0.34074E-06 -0.73019E-06 -0.13902E-05 -0.11638E-05 -0.44400E-06
 -0.23853E-06 -0.55184E-06 -0.10299E-05 -0.79587E-06 -0.28917E-06 -0.17644E-06
 -0.42882E-06 -0.80426E-06 -0.70914E-06 -0.34638E-06 -0.18834E-06 -0.23476E-06
 -0.50229E-06 -0.57793E-06 -0.35256E-06 -0.87100E-07 -0.44789E-08 -0.65117E-08
 -0.10637E-06 -0.33705E-06 -0.38005E-06 -0.22094E-06 -0.15740E-06 -0.25952E-06
 -0.35735E-06 -0.18768E-06 -0.18718E-07 -0.13152E-08 -0.37395E-07 -0.10352E-06
 -0.59941E-07 -0.36405E-07 -0.19103E-06 -0.69127E-06 -0.91434E-06 -0.53753E-06
 -0.31002E-06 -0.52863E-06 -0.10420E-05 -0.10960E-05 -0.71416E-06 -0.66806E-06
 -0.12154E-05 -0.18126E-05 -0.14633E-05 -0.70912E-06 -0.40418E-06 -0.45302E-06
 -0.48463E-06 -0.33122E-06 -0.26334E-06 -0.47605E-06 -0.88637E-06 -0.93382E-06
 -0.54865E-06 -0.28746E-06 -0.30902E-06 -0.50229E-06 -0.70534E-06 -0.77623E-06
 -0.45462E-06 -0.13348E-06 -0.12679E-07 -0.32450E-08 -0.74621E-07 -0.38602E-06
 -0.59802E-06 -0.31832E-06 -0.63262E-07 -0.52062E-07 -0.24622E-06 -0.42804E-06
 -0.21076E-06 -0.24680E-07 -0.12255E-07 -0.93581E-07 -0.21626E-06 -0.25803E-06
 -0.36324E-06 -0.62663E-06 -0.77440E-06 -0.60144E-06 -0.45150E-06 -0.55777E-06
 -0.78628E-06 -0.81626E-06 -0.74243E-06 -0.91410E-06 -0.13418E-05 -0.15440E-05
 -0.13106E-05 -0.10878E-05 -0.10566E-05 -0.88988E-06 -0.48012E-06 -0.25660E-06
 -0.44823E-06 -0.11418E-05 -0.15729E-05 -0.98208E-06 -0.30838E-06 -0.14975E-06
 -0.33483E-06 -0.70534E-06 -0.71055E-06 -0.73107E-06 -0.44371E-06 -0.18917E-06
 -0.66893E-07 -0.40112E-07 -0.11279E-06 -0.36800E-06 -0.52522E-06 -0.21502E-06
 -0.18266E-08  0.14785E-08 -0.12711E-06 -0.58895E-06 -0.53282E-06 -0.15436E-06
 -0.76386E-07 -0.29789E-06 -0.72693E-06 -0.77557E-06 -0.52857E-06 -0.42273E-06
 -0.49743E-06 -0.61155E-06 -0.67076E-06 -0.67595E-06 -0.63399E-06 -0.62182E-06
 -0.78542E-06 -0.11134E-05 -0.12448E-05 -0.10340E-05 -0.97850E-06 -0.14957E-05
 -0.22644E-05 -0.20756E-05 -0.10600E-05 -0.54567E-06 -0.82486E-06 -0.16672E-05
 -0.18558E-05 -0.94445E-06 -0.24985E-06 -0.13890E-06 -0.35726E-06 -0.71055E-06
 -0.60981E-06 -0.51765E-06 -0.36015E-06 -0.27355E-06 -0.25596E-06 -0.24513E-06
 -0.23987E-06 -0.28472E-06 -0.31088E-06 -0.16464E-06 -0.14587E-07 -0.36569E-09
 -0.84358E-07 -0.44217E-06 -0.53926E-06 -0.27517E-06 -0.20822E-06 -0.53232E-06
 -0.10901E-05 -0.10712E-05 -0.56461E-06 -0.29371E-06 -0.37683E-06 -0.73473E-06
 -0.10541E-05 -0.98206E-06 -0.71776E-06 -0.68829E-06 -0.10702E-05 -0.15568E-05
 -0.14247E-05 -0.92197E-06 -0.91070E-06 -0.17927E-05 -0.30424E-05 -0.29851E-05
 -0.18280E-05 -0.11347E-05 -0.12046E-05 -0.15195E-05 -0.13841E-05 -0.85945E-06
 -0.49629E-06 -0.43164E-06 -0.53655E-06 -0.60981E-06 -0.49190E-06 -0.32474E-06
 -0.30970E-06 -0.41325E-06 -0.60549E-06 -0.64494E-06 -0.37414E-06 -0.13626E-06
 -0.11302E-06 -0.23663E-06 -0.29687E-06 -0.17581E-06 -0.10620E-06 -0.17500E-06
 -0.30970E-06 -0.33269E-06 -0.32374E-06 -0.48479E-06 -0.78856E-06 -0.84697E-06
 -0.56445E-06 -0.36740E-06 -0.49913E-06 -0.10075E-05 -0.14996E-05 -0.13921E-05
 -0.10078E-05 -0.10246E-05 -0.16501E-05 -0.23026E-05 -0.20408E-05 -0.13957E-05
 -0.13682E-05 -0.20852E-05 -0.27397E-05 -0.25296E-05 -0.20595E-05 -0.19178E-05
 -0.17489E-05 -0.12087E-05 -0.76977E-06 -0.80861E-06 -0.11704E-05 -0.12668E-05
 -0.88135E-06 -0.49190E-06 -0.38323E-06 -0.25078E-06 -0.35978E-06 -0.59691E-06
 -0.93895E-06 -0.98834E-06 -0.41091E-06 -0.23603E-07 -0.90444E-08 -0.32627E-06
 -0.97441E-06 -0.68879E-06 -0.12872E-06 -0.38308E-07 -0.22266E-06 -0.57414E-06
 -0.54660E-06 -0.34301E-06 -0.34974E-06 -0.56228E-06 -0.72223E-06 -0.70878E-06
 -0.80820E-06 -0.12438E-05 -0.17436E-05 -0.17319E-05 -0.14407E-05 -0.15875E-05
 -0.23478E-05 -0.29447E-05 -0.26509E-05 -0.22305E-05 -0.24237E-05 -0.27227E-05
 -0.22471E-05 -0.16470E-05 -0.19821E-05 -0.30875E-05 -0.30002E-05 -0.13806E-05
 -0.51839E-06 -0.82620E-06 -0.19606E-05 -0.21993E-05 -0.11156E-05 -0.38323E-06
 -0.34350E-06 -0.34261E-06 -0.56782E-06 -0.77890E-06 -0.10657E-05 -0.11335E-05
 -0.45551E-06 -0.43281E-08  0.25167E-08 -0.30419E-06 -0.12829E-05 -0.90884E-06
 -0.99474E-07 -0.14157E-07 -0.35742E-06 -0.11489E-05 -0.92648E-06 -0.28571E-06
 -0.17087E-06 -0.52554E-06 -0.11065E-05 -0.12051E-05 -0.10703E-05 -0.12831E-05
 -0.17900E-05 -0.20397E-05 -0.20280E-05 -0.23647E-05 -0.30756E-05 -0.32698E-05
 -0.27905E-05 -0.27803E-05 -0.36403E-05 -0.38805E-05 -0.24432E-05 -0.13798E-05
 -0.21172E-05 -0.45018E-05 -0.48521E-05 -0.21128E-05 -0.61653E-06 -0.91983E-06
 -0.23150E-05 -0.24435E-05 -0.10495E-05 -0.34350E-06 -0.45927E-06 -0.68479E-06
 -0.94437E-06 -0.86688E-06 -0.92822E-06 -0.11111E-05 -0.64772E-06 -0.59214E-07
 -0.12478E-08 -0.25378E-06 -0.10275E-05 -0.72357E-06 -0.88690E-07 -0.48857E-07
 -0.61592E-06 -0.15240E-05 -0.10150E-05 -0.24255E-06 -0.17180E-06 -0.72039E-06
 -0.15326E-05 -0.15109E-05 -0.11589E-05 -0.13284E-05 -0.19980E-05 -0.25133E-05
 -0.27323E-05 -0.32740E-05 -0.40083E-05 -0.38176E-05 -0.29302E-05 -0.29541E-05
 -0.43723E-05 -0.51631E-05 -0.34303E-05 -0.18358E-05 -0.24478E-05 -0.51039E-05
 -0.58032E-05 -0.28699E-05 -0.10073E-05 -0.12103E-05 -0.23671E-05 -0.21744E-05
 -0.91366E-06 -0.45927E-06 -0.78653E-06 -0.12830E-05 -0.13424E-05 -0.77688E-06
 -0.58991E-06 -0.89211E-06 -0.90548E-06 -0.34169E-06 -0.99975E-07 -0.27917E-06
 -0.73594E-06 -0.60744E-06 -0.20961E-06 -0.21781E-06 -0.72524E-06 -0.11038E-05
 -0.59152E-06 -0.18545E-06 -0.30454E-06 -0.10425E-05 -0.17174E-05 -0.15185E-05
 -0.12798E-05 -0.17363E-05 -0.26730E-05 -0.31575E-05 -0.32293E-05 -0.38888E-05
 -0.50763E-05 -0.51618E-05 -0.39295E-05 -0.34356E-05 -0.46292E-05 -0.58910E-05
 -0.47240E-05 -0.28562E-05 -0.28206E-05 -0.44936E-05 -0.50793E-05 -0.31703E-05
 -0.17480E-05 -0.19575E-05 -0.26294E-05 -0.19838E-05 -0.93342E-06 -0.78653E-06
 -0.12278E-05 -0.19255E-05 -0.16192E-05 -0.61372E-06 -0.27865E-06 -0.55944E-06
 -0.97929E-06 -0.74369E-06 -0.35689E-06 -0.33721E-06 -0.56595E-06 -0.66575E-06
 -0.56747E-06 -0.56600E-06 -0.63229E-06 -0.48340E-06 -0.24681E-06 -0.24865E-06
 -0.66780E-06 -0.13903E-05 -0.16469E-05 -0.14623E-05 -0.16589E-05 -0.26213E-05
 -0.36705E-05 -0.36820E-05 -0.32535E-05 -0.38257E-05 -0.56582E-05 -0.69050E-05
 -0.59984E-05 -0.47340E-05 -0.49454E-05 -0.60042E-05 -0.57885E-05 -0.43046E-05
 -0.35308E-05 -0.38656E-05 -0.40391E-05 -0.33618E-05 -0.29247E-05 -0.32311E-05
 -0.31317E-05 -0.19276E-05 -0.10466E-05 -0.12278E-05 -0.15841E-05 -0.24558E-05
 -0.18815E-05 -0.58257E-06 -0.15798E-06 -0.34843E-06 -0.90781E-06 -0.10030E-05
 -0.57281E-06 -0.32183E-06 -0.38073E-06 -0.65509E-06 -0.92435E-06 -0.88363E-06
 -0.53013E-06 -0.24554E-06 -0.25118E-06 -0.64734E-06 -0.13434E-05 -0.16795E-05
 -0.15447E-05 -0.15903E-05 -0.22898E-05 -0.35096E-05 -0.42607E-05 -0.38545E-05
 -0.31726E-05 -0.35165E-05 -0.53943E-05 -0.76486E-05 -0.79627E-05 -0.65800E-05
 -0.57379E-05 -0.61414E-05 -0.66497E-05 -0.61105E-05 -0.50026E-05 -0.42133E-05
 -0.38636E-05 -0.38814E-05 -0.42786E-05 -0.44364E-05 -0.33480E-05 -0.17180E-05
 -0.10649E-05 -0.15841E-05 -0.18522E-05 -0.29375E-05 -0.22541E-05 -0.72690E-06
 -0.17844E-06 -0.32185E-06 -0.94092E-06 -0.12287E-05 -0.72977E-06 -0.26481E-06
 -0.19254E-06 -0.45992E-06 -0.92242E-06 -0.94376E-06 -0.51297E-06 -0.30448E-06
 -0.58049E-06 -0.13918E-05 -0.19784E-05 -0.18057E-05 -0.16331E-05 -0.20727E-05
 -0.29782E-05 -0.36900E-05 -0.38920E-05 -0.37897E-05 -0.36329E-05 -0.38166E-05
 -0.48935E-05 -0.68607E-05 -0.83684E-05 -0.81449E-05 -0.71341E-05 -0.69122E-05
 -0.75698E-05 -0.78641E-05 -0.68981E-05 -0.53608E-05 -0.44403E-05 -0.45735E-05
 -0.52247E-05 -0.49405E-05 -0.31063E-05 -0.13942E-05 -0.10120E-05 -0.18522E-05
 -0.21611E-05 -0.33904E-05 -0.25745E-05 -0.84076E-06 -0.20472E-06 -0.35896E-06
 -0.11208E-05 -0.15783E-05 -0.95196E-06 -0.27104E-06 -0.11584E-06 -0.31377E-06
 -0.76732E-06 -0.85733E-06 -0.54952E-06 -0.49108E-06 -0.99359E-06 -0.18251E-05
 -0.20356E-05 -0.17748E-05 -0.20296E-05 -0.29774E-05 -0.35915E-05 -0.32443E-05
 -0.30138E-05 -0.37348E-05 -0.48273E-05 -0.50952E-05 -0.49345E-05 -0.57180E-05
 -0.76189E-05 -0.90837E-05 -0.89822E-05 -0.84094E-05 -0.85508E-05 -0.88862E-05
 -0.81080E-05 -0.63236E-05 -0.50199E-05 -0.50096E-05 -0.56340E-05 -0.51179E-05
 -0.30151E-05 -0.13223E-05 -0.10900E-05 -0.21611E-05 -0.24665E-05 -0.37112E-05
 -0.26576E-05 -0.73762E-06 -0.13069E-06 -0.32641E-06 -0.12953E-05 -0.19314E-05
 -0.11706E-05 -0.33769E-06 -0.15113E-06 -0.36456E-06 -0.78498E-06 -0.82838E-06
 -0.57969E-06 -0.60441E-06 -0.10991E-05 -0.16692E-05 -0.17196E-05 -0.17627E-05
 -0.26100E-05 -0.39544E-05 -0.40539E-05 -0.28918E-05 -0.24905E-05 -0.38212E-05
 -0.60620E-05 -0.66606E-05 -0.56004E-05 -0.53993E-05 -0.71691E-05 -0.97058E-05
 -0.10693E-04 -0.10032E-04 -0.93807E-05 -0.91606E-05 -0.83637E-05 -0.66459E-05
 -0.52221E-05 -0.51190E-05 -0.58928E-05 -0.56497E-05 -0.35461E-05 -0.16442E-05
 -0.13272E-05 -0.24665E-05 -0.25499E-05 -0.39160E-05 -0.27346E-05 -0.62560E-06
 -0.64428E-07 -0.28950E-06 -0.14398E-05 -0.21037E-05 -0.11633E-05 -0.33594E-06
 -0.22869E-06 -0.56977E-06 -0.97940E-06 -0.86019E-06 -0.56300E-06 -0.60438E-06
 -0.10573E-05 -0.15338E-05 -0.16549E-05 -0.19128E-05 -0.29185E-05 -0.41856E-05
 -0.41612E-05 -0.30722E-05 -0.27556E-05 -0.40715E-05 -0.62693E-05 -0.70840E-05
 -0.62952E-05 -0.60904E-05 -0.76775E-05 -0.10168E-04 -0.11397E-04 -0.10820E-04
 -0.98989E-05 -0.94315E-05 -0.86708E-05 -0.69916E-05 -0.53747E-05 -0.51114E-05
 -0.61204E-05 -0.64254E-05 -0.43852E-05 -0.20394E-05 -0.14424E-05 -0.25499E-05
 -0.23609E-05 -0.41393E-05 -0.31166E-05 -0.74135E-06 -0.84593E-07 -0.37753E-06
 -0.16882E-05 -0.21396E-05 -0.93497E-06 -0.21274E-06 -0.23226E-06 -0.73687E-06
 -0.11384E-05 -0.84347E-06 -0.50214E-06 -0.59692E-06 -0.11716E-05 -0.18309E-05
 -0.20694E-05 -0.21828E-05 -0.26829E-05 -0.34581E-05 -0.38403E-05 -0.36985E-05
 -0.37347E-05 -0.44261E-05 -0.54461E-05 -0.61129E-05 -0.64718E-05 -0.72549E-05
 -0.87746E-05 -0.10329E-04 -0.10891E-04 -0.10492E-04 -0.10113E-04 -0.10152E-04
 -0.97046E-05 -0.78909E-05 -0.57630E-05 -0.50839E-05 -0.61046E-05 -0.67967E-05
 -0.47798E-05 -0.20417E-05 -0.12301E-05 -0.23609E-05 -0.21445E-05 -0.43449E-05
 -0.35949E-05 -0.98689E-06 -0.16592E-06 -0.54418E-06 -0.19631E-05 -0.21520E-05
 -0.73650E-06 -0.10950E-06 -0.18346E-06 -0.76907E-06 -0.11655E-05 -0.78446E-06
 -0.44689E-06 -0.61380E-06 -0.13768E-05 -0.23000E-05 -0.26047E-05 -0.23932E-05
 -0.23092E-05 -0.26879E-05 -0.34623E-05 -0.42735E-05 -0.47135E-05 -0.47048E-05
 -0.46388E-05 -0.50750E-05 -0.63166E-05 -0.80997E-05 -0.96295E-05 -0.10266E-04
 -0.10121E-04 -0.98693E-05 -0.10154E-04 -0.10887E-04 -0.10820E-04 -0.88269E-05
 -0.61601E-05 -0.50482E-05 -0.59236E-05 -0.67197E-05 -0.46910E-05 -0.18095E-05
 -0.96252E-06 -0.21445E-05 -0.21445E-05 -0.43449E-05 -0.35949E-05 -0.98689E-06
 -0.16592E-06 -0.54418E-06 -0.19631E-05 -0.21520E-05 -0.73650E-06 -0.10950E-06
 -0.18346E-06 -0.76907E-06 -0.11655E-05 -0.78446E-06 -0.44689E-06 -0.61380E-06
 -0.13768E-05 -0.23000E-05 -0.26047E-05 -0.23932E-05 -0.23092E-05 -0.26879E-05
 -0.34623E-05 -0.42735E-05 -0.47135E-05 -0.47048E-05 -0.46388E-05 -0.50750E-05
 -0.63166E-05 -0.80997E-05 -0.96295E-05 -0.10266E-04 -0.10121E-04 -0.98693E-05
 -0.10154E-04 -0.10887E-04 -0.10820E-04 -0.88269E-05 -0.61601E-05 -0.50482E-05
 -0.59236E-05 -0.67197E-05 -0.46910E-05 -0.18095E-05 -0.96252E-06 -0.21445E-05
 -0.23609E-05 -0.41393E-05 -0.31166E-05 -0.74135E-06 -0.84593E-07 -0.37753E-06
 -0.16882E-05 -0.21396E-05 -0.93497E-06 -0.21274E-06 -0.23226E-06 -0.73687E-06
 -0.11384E-05 -0.84347E-06 -0.50214E-06 -0.59692E-06 -0.11716E-05 -0.18309E-05
 -0.20694E-05 -0.21828E-05 -0.26829E-05 -0.34581E-05 -0.38403E-05 -0.36985E-05
 -0.37347E-05 -0.44261E-05 -0.54461E-05 -0.61129E-05 -0.64718E-05 -0.72549E-05
 -0.87746E-05 -0.10329E-04 -0.10891E-04 -0.10492E-04 -0.10113E-04 -0.10152E-04
 -0.97046E-05 -0.78909E-05 -0.57630E-05 -0.50839E-05 -0.61046E-05 -0.67967E-05
 -0.47798E-05 -0.20417E-05 -0.12301E-05 -0.23609E-05 -0.25499E-05 -0.39160E-05
 -0.27346E-05 -0.62560E-06 -0.64428E-07 -0.28950E-06 -0.14398E-05 -0.21037E-05
 -0.11633E-05 -0.33594E-06 -0.22869E-06 -0.56977E-06 -0.97940E-06 -0.86019E-06
 -0.56300E-06 -0.60438E-06 -0.10573E-05 -0.15338E-05 -0.16549E-05 -0.19128E-05
 -0.29185E-05 -0.41856E-05 -0.41612E-05 -0.30722E-05 -0.27556E-05 -0.40715E-05
 -0.62693E-05 -0.70840E-05 -0.62952E-05 -0.60904E-05 -0.76775E-05 -0.10168E-04
 -0.11397E-04 -0.10820E-04 -0.98989E-05 -0.94315E-05 -0.86708E-05 -0.69916E-05
 -0.53747E-05 -0.51114E-05 -0.61204E-05 -0.64254E-05 -0.43852E-05 -0.20394E-05
 -0.14424E-05 -0.25499E-05 -0.24665E-05 -0.37112E-05 -0.26576E-05 -0.73762E-06
 -0.13069E-06 -0.32641E-06 -0.12953E-05 -0.19314E-05 -0.11706E-05 -0.33769E-06
 -0.15113E-06 -0.36456E-06 -0.78498E-06 -0.82838E-06 -0.57969E-06 -0.60441E-06
 -0.10991E-05 -0.16692E-05 -0.17196E-05 -0.17627E-05 -0.26100E-05 -0.39544E-05
 -0.40539E-05 -0.28918E-05 -0.24905E-05 -0.38212E-05 -0.60620E-05 -0.66606E-05
 -0.56004E-05 -0.53993E-05 -0.71691E-05 -0.97058E-05 -0.10693E-04 -0.10032E-04
 -0.93807E-05 -0.91606E-05 -0.83637E-05 -0.66459E-05 -0.52221E-05 -0.51190E-05
 -0.58928E-05 -0.56497E-05 -0.35461E-05 -0.16442E-05 -0.13272E-05 -0.24665E-05
 -0.21611E-05 -0.33904E-05 -0.25745E-05 -0.84076E-06 -0.20472E-06 -0.35896E-06
 -0.11208E-05 -0.15783E-05 -0.95196E-06 -0.27104E-06 -0.11584E-06 -0.31377E-06
 -0.76732E-06 -0.85733E-06 -0.54952E-06 -0.49108E-06 -0.99359E-06 -0.18251E-05
 -0.20356E-05 -0.17748E-05 -0.20296E-05 -0.29774E-05 -0.35915E-05 -0.32443E-05
 -0.30138E-05 -0.37348E-05 -0.48273E-05 -0.50952E-05 -0.49345E-05 -0.57180E-05
 -0.76189E-05 -0.90837E-05 -0.89822E-05 -0.84094E-05 -0.85508E-05 -0.88862E-05
 -0.81080E-05 -0.63236E-05 -0.50199E-05 -0.50096E-05 -0.56340E-05 -0.51179E-05
 -0.30151E-05 -0.13223E-05 -0.10900E-05 -0.21611E-05 -0.18522E-05 -0.29375E-05
 -0.22541E-05 -0.72690E-06 -0.17844E-06 -0.32185E-06 -0.94092E-06 -0.12287E-05
 -0.72977E-06 -0.26481E-06 -0.19254E-06 -0.45992E-06 -0.92242E-06 -0.94376E-06
 -0.51297E-06 -0.30448E-06 -0.58049E-06 -0.13918E-05 -0.19784E-05 -0.18057E-05
 -0.16331E-05 -0.20727E-05 -0.29782E-05 -0.36900E-05 -0.38920E-05 -0.37897E-05
 -0.36329E-05 -0.38166E-05 -0.48935E-05 -0.68607E-05 -0.83684E-05 -0.81449E-05
 -0.71341E-05 -0.69122E-05 -0.75698E-05 -0.78641E-05 -0.68981E-05 -0.53608E-05
 -0.44403E-05 -0.45735E-05 -0.52247E-05 -0.49405E-05 -0.31063E-05 -0.13942E-05
 -0.10120E-05 -0.18522E-05 -0.15841E-05 -0.24558E-05 -0.18815E-05 -0.58257E-06
 -0.15798E-06 -0.34843E-06 -0.90781E-06 -0.10030E-05 -0.57281E-06 -0.32183E-06
 -0.38073E-06 -0.65509E-06 -0.92435E-06 -0.88363E-06 -0.53013E-06 -0.24554E-06
 -0.25118E-06 -0.64734E-06 -0.13434E-05 -0.16795E-05 -0.15447E-05 -0.15903E-05
 -0.22898E-05 -0.35096E-05 -0.42607E-05 -0.38545E-05 -0.31726E-05 -0.35165E-05
 -0.53943E-05 -0.76486E-05 -0.79627E-05 -0.65800E-05 -0.57379E-05 -0.61414E-05
 -0.66497E-05 -0.61105E-05 -0.50026E-05 -0.42133E-05 -0.38636E-05 -0.38814E-05
 -0.42786E-05 -0.44364E-05 -0.33480E-05 -0.17180E-05 -0.10649E-05 -0.15841E-05
 -0.12278E-05 -0.19255E-05 -0.16192E-05 -0.61372E-06 -0.27865E-06 -0.55944E-06
 -0.97929E-06 -0.74369E-06 -0.35689E-06 -0.33721E-06 -0.56595E-06 -0.66575E-06
 -0.56747E-06 -0.56600E-06 -0.63229E-06 -0.48340E-06 -0.24681E-06 -0.24865E-06
 -0.66780E-06 -0.13903E-05 -0.16469E-05 -0.14623E-05 -0.16589E-05 -0.26213E-05
 -0.36705E-05 -0.36820E-05 -0.32535E-05 -0.38257E-05 -0.56582E-05 -0.69050E-05
 -0.59984E-05 -0.47340E-05 -0.49454E-05 -0.60042E-05 -0.57885E-05 -0.43046E-05
 -0.35308E-05 -0.38656E-05 -0.40391E-05 -0.33618E-05 -0.29247E-05 -0.32311E-05
 -0.31317E-05 -0.19276E-05 -0.10466E-05 -0.12278E-05 -0.78653E-06 -0.12830E-05
 -0.13424E-05 -0.77688E-06 -0.58991E-06 -0.89211E-06 -0.90548E-06 -0.34169E-06
 -0.99975E-07 -0.27917E-06 -0.73594E-06 -0.60744E-06 -0.20961E-06 -0.21781E-06
 -0.72524E-06 -0.11038E-05 -0.59152E-06 -0.18545E-06 -0.30454E-06 -0.10425E-05
 -0.17174E-05 -0.15185E-05 -0.12798E-05 -0.17363E-05 -0.26730E-05 -0.31575E-05
 -0.32293E-05 -0.38888E-05 -0.50763E-05 -0.51618E-05 -0.39295E-05 -0.34356E-05
 -0.46292E-05 -0.58910E-05 -0.47240E-05 -0.28562E-05 -0.28206E-05 -0.44936E-05
 -0.50793E-05 -0.31703E-05 -0.17480E-05 -0.19575E-05 -0.26294E-05 -0.19838E-05
 -0.93342E-06 -0.78653E-06 -0.45927E-06 -0.68479E-06 -0.94437E-06 -0.86688E-06
 -0.92822E-06 -0.11111E-05 -0.64772E-06 -0.59214E-07 -0.12478E-08 -0.25378E-06
 -0.10275E-05 -0.72357E-06 -0.88690E-07 -0.48857E-07 -0.61592E-06 -0.15240E-05
 -0.10150E-05 -0.24255E-06 -0.17180E-06 -0.72039E-06 -0.15326E-05 -0.15109E-05
 -0.11589E-05 -0.13284E-05 -0.19980E-05 -0.25133E-05 -0.27323E-05 -0.32740E-05
 -0.40083E-05 -0.38176E-05 -0.29302E-05 -0.29541E-05 -0.43723E-05 -0.51631E-05
 -0.34303E-05 -0.18358E-05 -0.24478E-05 -0.51039E-05 -0.58032E-05 -0.28699E-05
 -0.10073E-05 -0.12103E-05 -0.23671E-05 -0.21744E-05 -0.91366E-06 -0.45927E-06
 -0.34350E-06 -0.34261E-06 -0.56782E-06 -0.77890E-06 -0.10657E-05 -0.11335E-05
 -0.45551E-06 -0.43281E-08  0.25167E-08 -0.30419E-06 -0.12829E-05 -0.90884E-06
 -0.99474E-07 -0.14157E-07 -0.35742E-06 -0.11489E-05 -0.92648E-06 -0.28571E-06
 -0.17087E-06 -0.52554E-06 -0.11065E-05 -0.12051E-05 -0.10703E-05 -0.12831E-05
 -0.17900E-05 -0.20397E-05 -0.20280E-05 -0.23647E-05 -0.30756E-05 -0.32698E-05
 -0.27905E-05 -0.27803E-05 -0.36403E-05 -0.38805E-05 -0.24432E-05 -0.13798E-05
 -0.21172E-05 -0.45018E-05 -0.48521E-05 -0.21128E-05 -0.61653E-06 -0.91983E-06
 -0.23150E-05 -0.24435E-05 -0.10495E-05 -0.34350E-06 -0.38323E-06 -0.25078E-06
 -0.35978E-06 -0.59691E-06 -0.93895E-06 -0.98834E-06 -0.41091E-06 -0.23603E-07
 -0.90444E-08 -0.32627E-06 -0.97441E-06 -0.68879E-06 -0.12872E-06 -0.38308E-07
 -0.22266E-06 -0.57414E-06 -0.54660E-06 -0.34301E-06 -0.34974E-06 -0.56228E-06
 -0.72223E-06 -0.70878E-06 -0.80820E-06 -0.12438E-05 -0.17436E-05 -0.17319E-05
 -0.14407E-05 -0.15875E-05 -0.23478E-05 -0.29447E-05 -0.26509E-05 -0.22305E-05
 -0.24237E-05 -0.27227E-05 -0.22471E-05 -0.16470E-05 -0.19821E-05 -0.30875E-05
 -0.30002E-05 -0.13806E-05 -0.51839E-06 -0.82620E-06 -0.19606E-05 -0.21993E-05
 -0.11156E-05 -0.38323E-06 -0.49190E-06 -0.32474E-06 -0.30970E-06 -0.41325E-06
 -0.60549E-06 -0.64494E-06 -0.37414E-06 -0.13626E-06 -0.11302E-06 -0.23663E-06
 -0.29687E-06 -0.17581E-06 -0.10620E-06 -0.17500E-06 -0.30970E-06 -0.33269E-06
 -0.32374E-06 -0.48479E-06 -0.78856E-06 -0.84697E-06 -0.56445E-06 -0.36740E-06
 -0.49913E-06 -0.10075E-05 -0.14996E-05 -0.13921E-05 -0.10078E-05 -0.10246E-05
 -0.16501E-05 -0.23026E-05 -0.20408E-05 -0.13957E-05 -0.13682E-05 -0.20852E-05
 -0.27397E-05 -0.25296E-05 -0.20595E-05 -0.19178E-05 -0.17489E-05 -0.12087E-05
 -0.76977E-06 -0.80861E-06 -0.11704E-05 -0.12668E-05 -0.88135E-06 -0.49190E-06
 -0.60981E-06 -0.51765E-06 -0.36015E-06 -0.27355E-06 -0.25596E-06 -0.24513E-06
 -0.23987E-06 -0.28472E-06 -0.31088E-06 -0.16464E-06 -0.14587E-07 -0.36569E-09
 -0.84358E-07 -0.44217E-06 -0.53926E-06 -0.27517E-06 -0.20822E-06 -0.53232E-06
 -0.10901E-05 -0.10712E-05 -0.56461E-06 -0.29371E-06 -0.37683E-06 -0.73473E-06
 -0.10541E-05 -0.98206E-06 -0.71776E-06 -0.68829E-06 -0.10702E-05 -0.15568E-05
 -0.14247E-05 -0.92197E-06 -0.91070E-06 -0.17927E-05 -0.30424E-05 -0.29851E-05
 -0.18280E-05 -0.11347E-05 -0.12046E-05 -0.15195E-05 -0.13841E-05 -0.85945E-06
 -0.49629E-06 -0.43164E-06 -0.53655E-06 -0.60981E-06 -0.71055E-06 -0.73107E-06
 -0.44371E-06 -0.18917E-06 -0.66893E-07 -0.40112E-07 -0.11279E-06 -0.36800E-06
 -0.52522E-06 -0.21502E-06 -0.18266E-08  0.14785E-08 -0.12711E-06 -0.58895E-06
 -0.53282E-06 -0.15436E-06 -0.76386E-07 -0.29789E-06 -0.72693E-06 -0.77557E-06
 -0.52857E-06 -0.42273E-06 -0.49743E-06 -0.61155E-06 -0.67076E-06 -0.67595E-06
 -0.63399E-06 -0.62182E-06 -0.78542E-06 -0.11134E-05 -0.12448E-05 -0.10340E-05
 -0.97850E-06 -0.14957E-05 -0.22644E-05 -0.20756E-05 -0.10600E-05 -0.54567E-06
 -0.82486E-06 -0.16672E-05 -0.18558E-05 -0.94445E-06 -0.24985E-06 -0.13890E-06
 -0.35726E-06 -0.71055E-06 -0.70534E-06 -0.77623E-06 -0.45462E-06 -0.13348E-06
 -0.12679E-07 -0.32450E-08 -0.74621E-07 -0.38602E-06 -0.59802E-06 -0.31832E-06
 -0.63262E-07 -0.52062E-07 -0.24622E-06 -0.42804E-06 -0.21076E-06 -0.24680E-07
 -0.12255E-07 -0.93581E-07 -0.21626E-06 -0.25803E-06 -0.36324E-06 -0.62663E-06
 -0.77440E-06 -0.60144E-06 -0.45150E-06 -0.55777E-06 -0.78628E-06 -0.81626E-06
 -0.74243E-06 -0.91410E-06 -0.13418E-05 -0.15440E-05 -0.13106E-05 -0.10878E-05
 -0.10566E-05 -0.88988E-06 -0.48012E-06 -0.25660E-06 -0.44823E-06 -0.11418E-05
 -0.15729E-05 -0.98208E-06 -0.30838E-06 -0.14975E-06 -0.33483E-06 -0.70534E-06
 -0.50229E-06 -0.57793E-06 -0.35256E-06 -0.87100E-07 -0.44789E-08 -0.65117E-08
 -0.10637E-06 -0.33705E-06 -0.38005E-06 -0.22094E-06 -0.15740E-06 -0.25952E-06
 -0.35735E-06 -0.18768E-06 -0.18718E-07 -0.13152E-08 -0.37395E-07 -0.10352E-06
 -0.59941E-07 -0.36405E-07 -0.19103E-06 -0.69127E-06 -0.91434E-06 -0.53753E-06
 -0.31002E-06 -0.52863E-06 -0.10420E-05 -0.10960E-05 -0.71416E-06 -0.66806E-06
 -0.12154E-05 -0.18126E-05 -0.14633E-05 -0.70912E-06 -0.40418E-06 -0.45302E-06
 -0.48463E-06 -0.33122E-06 -0.26334E-06 -0.47605E-06 -0.88637E-06 -0.93382E-06
 -0.54865E-06 -0.28746E-06 -0.30902E-06 -0.50229E-06 -0.23476E-06 -0.32679E-06
 -0.24592E-06 -0.73728E-07 -0.13921E-07 -0.42701E-07 -0.18403E-06 -0.24637E-06
 -0.10022E-06 -0.24564E-07 -0.85353E-07 -0.33600E-06 -0.36837E-06 -0.78369E-07
 -0.37430E-10 -0.22736E-07 -0.26514E-06 -0.36228E-06 -0.10047E-06 -0.11006E-07
 -0.10478E-06 -0.54561E-06 -0.72392E-06 -0.35467E-06 -0.18192E-06 -0.44244E-06
 -0.10725E-05 -0.11154E-05 -0.54569E-06 -0.34074E-06 -0.73019E-06 -0.13902E-05
 -0.11638E-05 -0.44400E-06 -0.23853E-06 -0.55184E-06 -0.10299E-05 -0.79587E-06
 -0.28917E-06 -0.17644E-06 -0.42882E-06 -0.80426E-06 -0.70914E-06 -0.34638E-06
 -0.18834E-06 -0.23476E-06 -0.97817E-07 -0.18706E-06 -0.21165E-06 -0.12672E-06
 -0.77641E-07 -0.13411E-06 -0.25143E-06 -0.17502E-06 -0.99882E-08  0.98309E-08
 -0.10443E-07 -0.22478E-06 -0.29545E-06 -0.67287E-07 -0.73035E-08 -0.11889E-06
 -0.56437E-06 -0.64349E-06 -0.21334E-06 -0.33762E-07 -0.82956E-07 -0.32666E-06
 -0.40260E-06 -0.18809E-06 -0.10393E-06 -0.29779E-06 -0.76754E-06 -0.80987E-06
 -0.35378E-06 -0.15177E-06 -0.32610E-06 -0.74459E-06 -0.68330E-06 -0.28376E-06
 -0.23585E-06 -0.75677E-06 -0.15218E-05 -0.12141E-05 -0.39598E-06 -0.13343E-06
 -0.27139E-06 -0.59280E-06 -0.56271E-06 -0.24547E-06 -0.88090E-07 -0.97817E-07
 -0.91662E-07 -0.11969E-06 -0.18096E-06 -0.23167E-06 -0.23043E-06 -0.21687E-06
 -0.20457E-06 -0.11935E-06 -0.13299E-07  0.19751E-08 -0.42941E-08 -0.10550E-06
 -0.17657E-06 -0.88442E-07 -0.56976E-07 -0.18293E-06 -0.44938E-06 -0.46435E-06
 -0.22562E-06 -0.93305E-07 -0.10134E-06 -0.17265E-06 -0.19207E-06 -0.13800E-06
 -0.11901E-06 -0.21370E-06 -0.41419E-06 -0.47292E-06 -0.28727E-06 -0.15327E-06
 -0.20607E-06 -0.37881E-06 -0.38468E-06 -0.24115E-06 -0.28073E-06 -0.69326E-06
 -0.11668E-05 -0.94428E-06 -0.41923E-06 -0.21717E-06 -0.26761E-06 -0.34852E-06
 -0.28313E-06 -0.16423E-06 -0.10201E-06 -0.91662E-07 -0.17466E-06 -0.47033E-07
 -0.66029E-07 -0.24002E-06 -0.33572E-06 -0.16840E-06 -0.49345E-07 -0.44309E-07
 -0.78182E-07 -0.73109E-07 -0.41609E-07 -0.34547E-07 -0.54631E-07 -0.92363E-07
 -0.13736E-06 -0.16672E-06 -0.15668E-06 -0.14159E-06 -0.16752E-06 -0.20420E-06
 -0.17020E-06 -0.10806E-06 -0.11389E-06 -0.20245E-06 -0.27323E-06 -0.24353E-06
 -0.22290E-06 -0.28599E-06 -0.35633E-06 -0.33173E-06 -0.27877E-06 -0.28162E-06
 -0.31948E-06 -0.36016E-06 -0.43456E-06 -0.52694E-06 -0.51814E-06 -0.41830E-06
 -0.38271E-06 -0.41457E-06 -0.33829E-06 -0.16906E-06 -0.11285E-06 -0.20893E-06
 -0.30741E-06 -0.17466E-06 -0.29219E-06 -0.14853E-08  0.15241E-09 -0.13245E-06
 -0.29285E-06 -0.58180E-07  0.78933E-08 -0.63521E-09 -0.17871E-06 -0.35143E-06
 -0.13583E-06 -0.46401E-08 -0.15693E-08 -0.73536E-07 -0.21308E-06 -0.15185E-06
 -0.31414E-07 -0.21195E-07 -0.15102E-06 -0.37533E-06 -0.28573E-06 -0.95848E-07
 -0.10060E-06 -0.34290E-06 -0.55577E-06 -0.35636E-06 -0.16188E-06 -0.21918E-06
 -0.48913E-06 -0.61764E-06 -0.43757E-06 -0.30118E-06 -0.38597E-06 -0.63633E-06
 -0.74170E-06 -0.48977E-06 -0.20286E-06 -0.15688E-06 -0.38787E-06 -0.67956E-06
 -0.43650E-06 -0.85874E-07 -0.57639E-07 -0.37071E-06 -0.72496E-06 -0.29219E-06
 -0.34651E-06  0.26582E-08  0.22450E-07 -0.79460E-07 -0.24688E-06 -0.21560E-07
  0.56512E-07  0.45653E-08 -0.22189E-06 -0.51998E-06 -0.18942E-06 -0.30435E-09
  0.21350E-08 -0.62634E-07 -0.24660E-06 -0.15267E-06 -0.11477E-07 -0.54675E-08
 -0.15836E-06 -0.47512E-06 -0.35186E-06 -0.97622E-07 -0.10253E-06 -0.42317E-06
 -0.71585E-06 -0.42591E-06 -0.15204E-06 -0.20563E-06 -0.55715E-06 -0.76300E-06
 -0.52108E-06 -0.32407E-06 -0.43871E-06 -0.80810E-06 -0.93406E-06 -0.51097E-06
 -0.13458E-06 -0.99845E-07 -0.40725E-06 -0.81688E-06 -0.48604E-06 -0.64912E-07
 -0.47816E-07 -0.47707E-06 -0.97069E-06 -0.34651E-06 -0.29219E-06 -0.14853E-08
  0.15241E-09 -0.13245E-06 -0.29285E-06 -0.58180E-07  0.78933E-08 -0.63521E-09
 -0.17871E-06 -0.35143E-06 -0.13583E-06 -0.46401E-08 -0.15693E-08 -0.73536E-07
 -0.21308E-06 -0.15185E-06 -0.31414E-07 -0.21195E-07 -0.15102E-06 -0.37533E-06
 -0.28573E-06 -0.95848E-07 -0.10060E-06 -0.34290E-06 -0.55577E-06 -0.35636E-06
 -0.16188E-06 -0.21918E-06 -0.48913E-06 -0.61764E-06 -0.43757E-06 -0.30118E-06
 -0.38597E-06 -0.63633E-06 -0.74170E-06 -0.48977E-06 -0.20286E-06 -0.15688E-06
 -0.38787E-06 -0.67956E-06 -0.43650E-06 -0.85874E-07 -0.57639E-07 -0.37071E-06
 -0.72496E-06 -0.29219E-06 -0.26772E-06 -0.17366E-07 -0.11080E-07 -0.16834E-06
 -0.29075E-06 -0.81170E-07 -0.43488E-09 -0.12373E-07 -0.16462E-06 -0.26266E-06
 -0.11210E-06 -0.15407E-07 -0.13742E-07 -0.82350E-07 -0.17567E-06 -0.12887E-06
 -0.37001E-07 -0.26426E-07 -0.12588E-06 -0.29690E-06 -0.24728E-06 -0.10610E-06
 -0.11399E-06 -0.31236E-06 -0.47450E-06 -0.32541E-06 -0.18117E-06 -0.24644E-06
 -0.47400E-06 -0.56568E-06 -0.42587E-06 -0.32409E-06 -0.38327E-06 -0.54043E-06
 -0.60044E-06 -0.43934E-06 -0.22937E-06 -0.18077E-06 -0.35012E-06 -0.57993E-06
 -0.41772E-06 -0.11680E-06 -0.72023E-07 -0.29830E-06 -0.56040E-06 -0.26772E-06
 -0.20127E-06 -0.98698E-07 -0.11007E-06 -0.21796E-06 -0.23978E-06 -0.12460E-06
 -0.61619E-07 -0.78336E-07 -0.10919E-06 -0.87113E-07 -0.56715E-07 -0.59558E-07
 -0.81525E-07 -0.96230E-07 -0.10393E-06 -0.10506E-06 -0.88353E-07 -0.77652E-07
 -0.10921E-06 -0.17091E-06 -0.18039E-06 -0.14335E-06 -0.15814E-06 -0.24940E-06
 -0.31124E-06 -0.27316E-06 -0.25491E-06 -0.33402E-06 -0.42927E-06 -0.42488E-06