 CRYSTAL
 PRIMVEC
    6.350126503    0.000000000    0.000000000
    0.000000000    6.350126503    0.000000000
    0.000000000    0.000000000    6.350126503
 PRIMCOORD
           2           1
C         4.315929791    3.175063252    3.175063252
O         3.175063252    3.175063252    3.175063252
BEGIN_BLOCK_DATAGRID_3D
3D_PWSCF
DATAGRID_3D_UNKNOWN
          46          46          46
  0.000000  0.000000  0.000000
  6.350127  0.000000  0.000000
  0.000000  6.350127  0.000000
  0.000000  0.000000  6.350127
 -0.19067E-17 -0.19741E-17 -0.20435E-17 -0.20678E-17 -0.20788E-17 -0.21343E-17
 -0.22202E-17 -0.22736E-17 -0.22901E-17 -0.23299E-17 -0.24149E-17 -0.24971E-17
 -0.25385E-17 -0.25607E-17 -0.25921E-17 -0.26271E-17 -0.26578E-17 -0.26920E-17
 -0.27224E-17 -0.27259E-17 -0.27098E-17 -0.27062E-17 -0.27120E-17 -0.26888E-17
 -0.26336E-17 -0.25895E-17 -0.25694E-17 -0.25312E-17 -0.24539E-17 -0.23761E-17
 -0.23279E-17 -0.22814E-17 -0.22057E-17 -0.21221E-17 -0.20654E-17 -0.20295E-17
 -0.19895E-17 -0.19454E-17 -0.19109E-17 -0.18855E-17 -0.18682E-17 -0.18705E-17
 -0.18888E-17 -0.18954E-17 -0.18874E-17 -0.19067E-17 -0.10298E-05 -0.85363E-06
 -0.36179E-06 -0.10778E-06 -0.39737E-07 -0.17431E-08  0.71767E-07  0.31281E-06
  0.31238E-06  0.68822E-07 -0.40310E-09 -0.25245E-09  0.43854E-07  0.14140E-06
  0.12652E-06  0.91922E-07  0.16548E-06  0.37708E-06  0.49356E-06  0.34129E-06
  0.17409E-06  0.14227E-06  0.17450E-06  0.12662E-06  0.22291E-07 -0.11060E-08
 -0.20376E-08  0.13516E-08  0.41564E-09 -0.20899E-07 -0.10205E-06 -0.15357E-06
 -0.19309E-06 -0.36575E-06 -0.72531E-06 -0.91130E-06 -0.59995E-06 -0.22025E-06
 -0.11221E-06 -0.20451E-06 -0.35995E-06 -0.32188E-06 -0.20180E-06 -0.25985E-06
 -0.62608E-06 -0.10298E-05 -0.11251E-05 -0.95155E-06 -0.39617E-06 -0.15091E-06
 -0.12161E-06 -0.57264E-07  0.14042E-07  0.22625E-06  0.19436E-06  0.68575E-10
 -0.15153E-06 -0.14766E-06 -0.79724E-08  0.91797E-08  0.19493E-09 -0.53673E-08
  0.15385E-07  0.25427E-06  0.47995E-06  0.28337E-06  0.73282E-07  0.39199E-07
  0.64898E-07  0.25268E-07 -0.23325E-07 -0.17255E-06 -0.16787E-06 -0.75865E-07
 -0.10370E-06 -0.37707E-06 -0.82547E-06 -0.10201E-05 -0.10676E-05 -0.14574E-05
 -0.22307E-05 -0.24501E-05 -0.14906E-05 -0.49540E-06 -0.21709E-06 -0.39751E-06
 -0.72331E-06 -0.60171E-06 -0.26903E-06 -0.23233E-06 -0.60838E-06 -0.11251E-05
 -0.36810E-06 -0.27827E-06 -0.11976E-06 -0.10168E-06 -0.22128E-06 -0.29703E-06
 -0.14256E-06 -0.20848E-07 -0.19193E-07 -0.14342E-06 -0.33090E-06 -0.24619E-06
 -0.67837E-07 -0.32934E-07 -0.12654E-06 -0.27880E-06 -0.18206E-06 -0.19620E-07
 -0.36576E-09 -0.47276E-07 -0.24623E-06 -0.32331E-06 -0.24233E-06 -0.30368E-06
 -0.66345E-06 -0.10596E-05 -0.98751E-06 -0.73202E-06 -0.81996E-06 -0.13790E-05
 -0.19684E-05 -0.19742E-05 -0.17095E-05 -0.18262E-05 -0.23626E-05 -0.25512E-05
 -0.18168E-05 -0.93219E-06 -0.64843E-06 -0.92164E-06 -0.12786E-05 -0.10103E-05
 -0.43471E-06 -0.19456E-06 -0.24773E-06 -0.36810E-06 -0.46531E-06 -0.23311E-06
 -0.11877E-06 -0.14545E-06 -0.32487E-06 -0.57583E-06 -0.66394E-06 -0.51609E-06
 -0.28206E-06 -0.10057E-06 -0.10884E-07  0.92916E-08  0.57889E-07  0.58544E-07
  0.33949E-08 -0.48843E-07 -0.19917E-06 -0.34653E-06 -0.58515E-06 -0.10670E-05
 -0.15834E-05 -0.16588E-05 -0.14107E-05 -0.13670E-05 -0.16866E-05 -0.20315E-05
 -0.20304E-05 -0.18928E-05 -0.19919E-05 -0.22474E-05 -0.21949E-05 -0.16921E-05
 -0.11797E-05 -0.10168E-05 -0.12339E-05 -0.16954E-05 -0.21780E-05 -0.25744E-05
 -0.29404E-05 -0.32164E-05 -0.30980E-05 -0.24442E-05 -0.16232E-05 -0.10467E-05
 -0.72240E-06 -0.46531E-06 -0.16591E-05 -0.85855E-06 -0.44292E-06 -0.31323E-06
 -0.36254E-06 -0.57960E-06 -0.86325E-06 -0.81461E-06 -0.30336E-06 -0.76343E-10
  0.17161E-06  0.31651E-06  0.32315E-06  0.36375E-06  0.37333E-06  0.16445E-06
 -0.18988E-08 -0.30652E-06 -0.87914E-06 -0.13257E-05 -0.15306E-05 -0.15339E-05
 -0.14550E-05 -0.14502E-05 -0.15983E-05 -0.18924E-05 -0.23289E-05 -0.28675E-05
 -0.32400E-05 -0.30888E-05 -0.24962E-05 -0.19086E-05 -0.15408E-05 -0.13342E-05
 -0.13354E-05 -0.18745E-05 -0.34093E-05 -0.57138E-05 -0.71488E-05 -0.65212E-05
 -0.48622E-05 -0.36844E-05 -0.32981E-05 -0.31446E-05 -0.25930E-05 -0.16591E-05
 -0.27603E-05 -0.16669E-05 -0.94340E-06 -0.55127E-06 -0.38291E-06 -0.41162E-06
 -0.56997E-06 -0.54218E-06 -0.17729E-06  0.41426E-09  0.45295E-07  0.19127E-08
 -0.27115E-07 -0.48836E-08  0.53684E-07  0.11199E-06  0.31148E-08 -0.12552E-06
 -0.30523E-06 -0.24523E-06 -0.16936E-06 -0.23829E-06 -0.47522E-06 -0.75498E-06
 -0.96404E-06 -0.13088E-05 -0.21683E-05 -0.35833E-05 -0.47415E-05 -0.49154E-05
 -0.47331E-05 -0.51465E-05 -0.59778E-05 -0.60212E-05 -0.50404E-05 -0.44795E-05
 -0.54631E-05 -0.75229E-05 -0.82795E-05 -0.63949E-05 -0.39051E-05 -0.27728E-05
 -0.30056E-05 -0.37133E-05 -0.37106E-05 -0.27603E-05 -0.25467E-05 -0.19550E-05
 -0.14740E-05 -0.10348E-05 -0.61733E-06 -0.33880E-06 -0.21933E-06 -0.15251E-06
 -0.71241E-07 -0.33912E-07 -0.12169E-06 -0.58814E-06 -0.12310E-05 -0.10987E-05
 -0.43280E-06 -0.10495E-06 -0.67369E-07 -0.78856E-07 -0.14020E-07  0.34043E-07
  0.96050E-07  0.32335E-08 -0.17731E-06 -0.65011E-06 -0.97123E-06 -0.13297E-05
 -0.23419E-05 -0.42264E-05 -0.60614E-05 -0.70481E-05 -0.82052E-05 -0.10937E-04
 -0.14482E-04 -0.15517E-04 -0.12732E-04 -0.91328E-05 -0.72607E-05 -0.67499E-05
 -0.59855E-05 -0.43596E-05 -0.28662E-05 -0.22971E-05 -0.25346E-05 -0.29968E-05
 -0.30285E-05 -0.25467E-05 -0.23218E-05 -0.23110E-05 -0.23650E-05 -0.20477E-05
 -0.12336E-05 -0.42040E-06 -0.66984E-07 -0.12275E-07 -0.30323E-07 -0.94971E-07
 -0.20501E-06 -0.40422E-06 -0.67401E-06 -0.77779E-06 -0.58414E-06 -0.32448E-06
 -0.16901E-06 -0.69593E-07 -0.28563E-08  0.20446E-07  0.10787E-07 -0.79751E-07
 -0.69917E-06 -0.15493E-05 -0.19620E-05 -0.22635E-05 -0.31955E-05 -0.48887E-05
 -0.64909E-05 -0.74789E-05 -0.88837E-05 -0.11881E-04 -0.15651E-04 -0.17279E-04
 -0.15386E-04 -0.11868E-04 -0.87837E-05 -0.65952E-05 -0.52103E-05 -0.46891E-05
 -0.48985E-05 -0.51663E-05 -0.47253E-05 -0.36731E-05 -0.27424E-05 -0.23218E-05
 -0.26524E-05 -0.29157E-05 -0.32607E-05 -0.29356E-05 -0.17588E-05 -0.53701E-06
 -0.59657E-07 -0.21272E-07 -0.12475E-06 -0.20999E-06 -0.40911E-07  0.45432E-07
  0.15255E-06  0.47262E-07 -0.31578E-08 -0.30502E-07 -0.23244E-07 -0.26539E-07
 -0.85229E-07 -0.25305E-06 -0.59125E-06 -0.12169E-05 -0.21291E-05 -0.29531E-05
 -0.33843E-05 -0.37612E-05 -0.45909E-05 -0.57817E-05 -0.66650E-05 -0.70332E-05
 -0.75077E-05 -0.85054E-05 -0.96567E-05 -0.10552E-04 -0.11414E-04 -0.12166E-04
 -0.11677E-04 -0.95576E-05 -0.76534E-05 -0.78299E-05 -0.99351E-05 -0.11274E-04
 -0.92896E-05 -0.56686E-05 -0.33126E-05 -0.26524E-05 -0.30799E-05 -0.32137E-05
 -0.32041E-05 -0.26114E-05 -0.15198E-05 -0.52547E-06 -0.13713E-06 -0.18136E-06
 -0.54549E-06 -0.61054E-06 -0.61798E-07  0.26638E-06  0.78018E-06  0.44029E-06
  0.68228E-07  0.10230E-07  0.15970E-07 -0.39478E-09 -0.22408E-06 -0.10077E-05
 -0.18107E-05 -0.22128E-05 -0.25272E-05 -0.30770E-05 -0.38875E-05 -0.48838E-05
 -0.59620E-05 -0.68733E-05 -0.74440E-05 -0.78684E-05 -0.82653E-05 -0.82019E-05
 -0.75239E-05 -0.73761E-05 -0.93092E-05 -0.13351E-04 -0.16181E-04 -0.14586E-04
 -0.11154E-04 -0.10024E-04 -0.11601E-04 -0.12683E-04 -0.10235E-04 -0.61957E-05
 -0.37277E-05 -0.30799E-05 -0.37523E-05 -0.33663E-05 -0.25988E-05 -0.17482E-05
 -0.10271E-05 -0.48943E-06 -0.25013E-06 -0.33035E-06 -0.68337E-06 -0.76880E-06
 -0.25534E-06  0.10588E-09  0.40981E-07  0.17516E-10 -0.35888E-07 -0.63380E-08
  0.17576E-07  0.11640E-08 -0.20000E-06 -0.93560E-06 -0.14572E-05 -0.14740E-05
 -0.15967E-05 -0.23139E-05 -0.37113E-05 -0.53943E-05 -0.67489E-05 -0.75357E-05
 -0.82189E-05 -0.95340E-05 -0.11418E-04 -0.12437E-04 -0.11585E-04 -0.10494E-04
 -0.11673E-04 -0.15534E-04 -0.18650E-04 -0.16919E-04 -0.12224E-04 -0.91122E-05
 -0.85152E-05 -0.84575E-05 -0.71381E-05 -0.52324E-05 -0.41093E-05 -0.37523E-05
 -0.50307E-05 -0.37581E-05 -0.22657E-05 -0.13450E-05 -0.95574E-06 -0.70638E-06
 -0.42844E-06 -0.23392E-06 -0.17039E-06 -0.16202E-06 -0.14160E-06 -0.13346E-06
 -0.18990E-06 -0.26184E-06 -0.17897E-06 -0.27029E-07  0.47960E-09 -0.80848E-08
 -0.18771E-06 -0.54229E-06 -0.72856E-06 -0.82637E-06 -0.12307E-05 -0.22683E-05
 -0.39165E-05 -0.56527E-05 -0.68886E-05 -0.75338E-05 -0.81952E-05 -0.97932E-05
 -0.12649E-04 -0.15536E-04 -0.16477E-04 -0.15500E-04 -0.14720E-04 -0.15329E-04
 -0.16118E-04 -0.15024E-04 -0.12100E-04 -0.92472E-05 -0.74676E-05 -0.64286E-05
 -0.57278E-05 -0.54260E-05 -0.54271E-05 -0.50307E-05 -0.55768E-05 -0.35834E-05
 -0.19198E-05 -0.12304E-05 -0.12219E-05 -0.13028E-05 -0.90166E-06 -0.25262E-06
 -0.19440E-08  0.22643E-07  0.12397E-08 -0.31173E-07 -0.52590E-07 -0.44492E-08
  0.17759E-07  0.21782E-07 -0.57414E-08 -0.15030E-06 -0.36942E-06 -0.49749E-06
 -0.64715E-06 -0.10609E-05 -0.19012E-05 -0.30613E-05 -0.42665E-05 -0.54266E-05
 -0.65878E-05 -0.76404E-05 -0.84366E-05 -0.92183E-05 -0.10569E-04 -0.12719E-04
 -0.14872E-04 -0.15574E-04 -0.14396E-04 -0.12647E-04 -0.11898E-04 -0.12511E-04
 -0.13395E-04 -0.12897E-04 -0.10665E-04 -0.81499E-05 -0.67609E-05 -0.65913E-05
 -0.66091E-05 -0.55768E-05 -0.42396E-05 -0.24500E-05 -0.12719E-05 -0.94505E-06
 -0.12375E-05 -0.17196E-05 -0.15406E-05 -0.61379E-06 -0.37394E-07  0.16282E-07
  0.56886E-08 -0.88787E-09  0.23724E-07  0.28654E-06  0.45448E-06  0.10240E-06
 -0.78255E-07 -0.45996E-06 -0.53848E-06 -0.49431E-06 -0.76638E-06 -0.15631E-05
 -0.25856E-05 -0.32437E-05 -0.35983E-05 -0.42866E-05 -0.58326E-05 -0.81085E-05
 -0.10009E-04 -0.10366E-04 -0.96265E-05 -0.94963E-05 -0.10950E-04 -0.12967E-04
 -0.13185E-04 -0.11331E-04 -0.10056E-04 -0.11381E-04 -0.14565E-04 -0.16012E-04
 -0.13438E-04 -0.93807E-05 -0.68866E-05 -0.61133E-05 -0.56068E-05 -0.42396E-05
 -0.29829E-05 -0.17475E-05 -0.93793E-06 -0.67118E-06 -0.83071E-06 -0.12498E-05
 -0.13801E-05 -0.82442E-06 -0.22344E-06 -0.48409E-07 -0.65757E-07 -0.82182E-07
 -0.80352E-09  0.11712E-06  0.13893E-06 -0.35002E-08 -0.30243E-06 -0.44663E-06
 -0.22649E-06 -0.15558E-06 -0.42663E-06 -0.11279E-05 -0.17560E-05 -0.19518E-05
 -0.21395E-05 -0.28914E-05 -0.46704E-05 -0.76810E-05 -0.11084E-04 -0.12787E-04
 -0.11866E-04 -0.10359E-04 -0.10641E-04 -0.12718E-04 -0.13986E-04 -0.12546E-04
 -0.10487E-04 -0.10505E-04 -0.12365E-04 -0.12973E-04 -0.10345E-04 -0.68031E-05
 -0.48457E-05 -0.43369E-05 -0.39833E-05 -0.29829E-05 -0.31227E-05 -0.20986E-05
 -0.12320E-05 -0.71507E-06 -0.52766E-06 -0.55517E-06 -0.56418E-06 -0.34425E-06
 -0.10275E-06 -0.40481E-07 -0.10165E-06 -0.21250E-06 -0.17361E-06 -0.84508E-07
 -0.11141E-06 -0.27795E-06 -0.32042E-06 -0.90274E-07  0.10764E-09  0.36718E-09
 -0.72790E-07 -0.31406E-06 -0.48524E-06 -0.68128E-06 -0.12395E-05 -0.22869E-05
 -0.36724E-05 -0.56463E-05 -0.87744E-05 -0.12320E-04 -0.14011E-04 -0.13406E-04
 -0.12812E-04 -0.13632E-04 -0.14444E-04 -0.13154E-04 -0.10536E-04 -0.88339E-05
 -0.83547E-05 -0.76039E-05 -0.58013E-05 -0.40972E-05 -0.34906E-05 -0.37001E-05
 -0.37728E-05 -0.31227E-05 -0.32992E-05 -0.23671E-05 -0.15059E-05 -0.87886E-06
 -0.52168E-06 -0.34925E-06 -0.20971E-06 -0.54991E-07  0.29811E-09  0.14857E-07
  0.83425E-10 -0.39396E-07 -0.12696E-06 -0.20420E-06 -0.26275E-06 -0.21455E-06
 -0.50118E-07  0.67747E-08  0.36491E-07  0.44272E-09 -0.40664E-07 -0.65106E-07
 -0.66278E-07 -0.26997E-06 -0.11754E-05 -0.25979E-05 -0.33172E-05 -0.35501E-05
 -0.48283E-05 -0.80177E-05 -0.11695E-04 -0.13146E-04 -0.12407E-04 -0.11531E-04
 -0.11120E-04 -0.10263E-04 -0.86418E-05 -0.70845E-05 -0.60710E-05 -0.52438E-05
 -0.43436E-05 -0.37202E-05 -0.36860E-05 -0.39732E-05 -0.39385E-05 -0.32992E-05
 -0.18998E-05 -0.13201E-05 -0.90688E-06 -0.68512E-06 -0.59520E-06 -0.50731E-06
 -0.31041E-06 -0.86305E-07 -0.54894E-09  0.19035E-07  0.28375E-07  0.14553E-07
  0.13091E-08 -0.32711E-08 -0.85060E-08 -0.34485E-10  0.18363E-07  0.20826E-07
 -0.56771E-08 -0.13272E-06 -0.20999E-06 -0.10370E-06 -0.62737E-07 -0.30836E-06
 -0.13785E-05 -0.28512E-05 -0.31715E-05 -0.25798E-05 -0.26195E-05 -0.41687E-05
 -0.68738E-05 -0.86528E-05 -0.82858E-05 -0.70607E-05 -0.63533E-05 -0.62133E-05
 -0.61038E-05 -0.58151E-05 -0.55079E-05 -0.52296E-05 -0.48432E-05 -0.43103E-05
 -0.37340E-05 -0.31602E-05 -0.25462E-05 -0.18998E-05 -0.65028E-06 -0.43478E-06
 -0.31331E-06 -0.32737E-06 -0.45587E-06 -0.53616E-06 -0.40654E-06 -0.19598E-06
 -0.76003E-07 -0.28739E-07 -0.26224E-08  0.11749E-07  0.54615E-07  0.70353E-07
  0.62375E-07  0.58564E-07  0.34717E-07 -0.39071E-10 -0.83616E-07 -0.23968E-06
 -0.25666E-06 -0.18885E-06 -0.21253E-06 -0.46496E-06 -0.10598E-05 -0.17986E-05
 -0.22117E-05 -0.21846E-05 -0.21472E-05 -0.25536E-05 -0.34391E-05 -0.42336E-05
 -0.43226E-05 -0.39330E-05 -0.37172E-05 -0.38898E-05 -0.41793E-05 -0.43184E-05
 -0.43741E-05 -0.44379E-05 -0.42580E-05 -0.35220E-05 -0.24302E-05 -0.15072E-05
 -0.96009E-06 -0.65028E-06 -0.53459E-06 -0.42939E-06 -0.26814E-06 -0.18877E-06
 -0.18829E-06 -0.16518E-06 -0.80766E-07 -0.27543E-07 -0.30130E-07 -0.63890E-07
 -0.53843E-07 -0.36547E-08  0.16206E-07  0.38496E-07  0.24207E-07  0.70100E-08
  0.15168E-09 -0.23020E-08 -0.35658E-08 -0.11990E-08 -0.81267E-08 -0.94897E-07
 -0.32470E-06 -0.44925E-06 -0.36648E-06 -0.37220E-06 -0.72505E-06 -0.14385E-05
 -0.19479E-05 -0.18901E-05 -0.16958E-05 -0.17828E-05 -0.21468E-05 -0.25574E-05
 -0.28304E-05 -0.28786E-05 -0.26475E-05 -0.22551E-05 -0.19870E-05 -0.19644E-05
 -0.19494E-05 -0.16053E-05 -0.10426E-05 -0.65745E-06 -0.54674E-06 -0.53459E-06
 -0.74836E-06 -0.67814E-06 -0.38589E-06 -0.14967E-06 -0.38285E-07 -0.11229E-09
  0.31859E-07  0.71308E-07  0.28103E-07 -0.10259E-08 -0.20803E-07 -0.10179E-07
 -0.15506E-09 -0.16685E-10 -0.55602E-08 -0.18228E-07 -0.11547E-07  0.18136E-08
  0.77858E-07  0.19642E-06  0.10826E-06 -0.50998E-08 -0.20504E-06 -0.22855E-06
 -0.35962E-07 -0.12208E-10 -0.53308E-07 -0.51102E-06 -0.10744E-05 -0.10096E-05
 -0.67010E-06 -0.60044E-06 -0.90292E-06 -0.14325E-05 -0.17895E-05 -0.16686E-05
 -0.11674E-05 -0.65198E-06 -0.37617E-06 -0.32531E-06 -0.37489E-06 -0.38632E-06
 -0.34546E-06 -0.37696E-06 -0.55541E-06 -0.74836E-06 -0.18783E-06 -0.17424E-06
 -0.97454E-07 -0.30788E-07 -0.23848E-08  0.47503E-08  0.29217E-07  0.44595E-07
  0.24832E-07  0.26881E-08 -0.57231E-09 -0.13309E-08 -0.66746E-09 -0.16289E-08
 -0.61052E-08 -0.96423E-08 -0.37442E-08  0.21820E-08  0.37161E-07  0.80538E-07
  0.48695E-07  0.25429E-09 -0.28641E-07 -0.29367E-07 -0.24685E-09  0.88526E-08
  0.10091E-10 -0.48901E-07 -0.14431E-06 -0.13860E-06 -0.80581E-07 -0.66886E-07
 -0.11699E-06 -0.21573E-06 -0.28298E-06 -0.24910E-06 -0.14478E-06 -0.54808E-07
 -0.17054E-07 -0.11270E-07 -0.18508E-07 -0.29435E-07 -0.41429E-07 -0.69833E-07
 -0.12967E-06 -0.18783E-06  0.18783E-06  0.17424E-06  0.97452E-07  0.30787E-07
  0.23846E-08 -0.47506E-08 -0.29218E-07 -0.44596E-07 -0.24833E-07 -0.26884E-08
  0.57217E-09  0.13307E-08  0.66731E-09  0.16286E-08  0.61047E-08  0.96417E-08
  0.37438E-08 -0.21823E-08 -0.37162E-07 -0.80540E-07 -0.48696E-07 -0.25439E-09
  0.28639E-07  0.29366E-07  0.24675E-09 -0.88532E-08 -0.10112E-10  0.48900E-07
  0.14430E-06  0.13860E-06  0.80579E-07  0.66885E-07  0.11699E-06  0.21572E-06
  0.28298E-06  0.24909E-06  0.14478E-06  0.54807E-07  0.17054E-07  0.11269E-07
  0.18507E-07  0.29434E-07  0.41428E-07  0.69831E-07  0.12967E-06  0.18783E-06
  0.74836E-06  0.67814E-06  0.38588E-06  0.14967E-06  0.38283E-07  0.11223E-09
 -0.31860E-07 -0.71309E-07 -0.28104E-07  0.10257E-08  0.20802E-07  0.10179E-07
  0.15499E-09  0.16661E-10  0.55597E-08  0.18227E-07  0.11546E-07 -0.18139E-08
 -0.77859E-07 -0.19642E-06 -0.10827E-06  0.50993E-08  0.20504E-06  0.22855E-06
  0.35960E-07  0.12186E-10  0.53307E-07  0.51101E-06  0.10744E-05  0.10096E-05
  0.67009E-06  0.60044E-06  0.90291E-06  0.14325E-05  0.17895E-05  0.16686E-05
  0.11674E-05  0.65198E-06  0.37617E-06  0.32531E-06  0.37489E-06  0.38631E-06
  0.34545E-06  0.37696E-06  0.55541E-06  0.74836E-06  0.53459E-06  0.42938E-06
  0.26814E-06  0.18877E-06  0.18829E-06  0.16517E-06  0.80764E-07  0.27542E-07
  0.30129E-07  0.63888E-07  0.53841E-07  0.36544E-08 -0.16207E-07 -0.38497E-07
 -0.24208E-07 -0.70105E-08 -0.15175E-09  0.23017E-08  0.35655E-08  0.11988E-08
  0.81262E-08  0.94895E-07  0.32470E-06  0.44925E-06  0.36648E-06  0.37220E-06
  0.72504E-06  0.14385E-05  0.19479E-05  0.18901E-05  0.16958E-05  0.17828E-05
  0.21467E-05  0.25574E-05  0.28304E-05  0.28786E-05  0.26475E-05  0.22551E-05
  0.19870E-05  0.19644E-05  0.19494E-05  0.16053E-05  0.10426E-05  0.65744E-06
  0.54673E-06  0.53459E-06  0.65028E-06  0.43478E-06  0.31331E-06  0.32737E-06
  0.45587E-06  0.53615E-06  0.40653E-06  0.19598E-06  0.76001E-07  0.28738E-07
  0.26221E-08 -0.11750E-07 -0.54616E-07 -0.70354E-07 -0.62377E-07 -0.58565E-07
 -0.34718E-07  0.39032E-10  0.83614E-07  0.23967E-06  0.25665E-06  0.18885E-06
  0.21253E-06  0.46495E-06  0.10598E-05  0.17985E-05  0.22117E-05  0.21846E-05
  0.21472E-05  0.25536E-05  0.34391E-05  0.42336E-05  0.43226E-05  0.39330E-05
  0.37172E-05  0.38898E-05  0.41793E-05  0.43184E-05  0.43741E-05  0.44379E-05
  0.42580E-05  0.35220E-05  0.24302E-05  0.15072E-05  0.96009E-06  0.65028E-06
  0.18997E-05  0.13201E-05  0.90687E-06  0.68512E-06  0.59520E-06  0.50730E-06
  0.31041E-06  0.86303E-07  0.54881E-09 -0.19036E-07 -0.28376E-07 -0.14553E-07
 -0.13094E-08  0.32707E-08  0.85054E-08  0.34449E-10 -0.18364E-07 -0.20826E-07
  0.56767E-08  0.13271E-06  0.20999E-06  0.10370E-06  0.62735E-07  0.30835E-06
  0.13785E-05  0.28512E-05  0.31715E-05  0.25797E-05  0.26195E-05  0.41687E-05
  0.68738E-05  0.86528E-05  0.82858E-05  0.70607E-05  0.63533E-05  0.62133E-05
  0.61038E-05  0.58151E-05  0.55079E-05  0.52296E-05  0.48432E-05  0.43103E-05
  0.37340E-05  0.31602E-05  0.25462E-05  0.18997E-05  0.32992E-05  0.23671E-05
  0.15059E-05  0.87885E-06  0.52167E-06  0.34925E-06  0.20971E-06  0.54990E-07
 -0.29821E-09 -0.14858E-07 -0.83479E-10  0.39395E-07  0.12696E-06  0.20420E-06
  0.26274E-06  0.21455E-06  0.50116E-07 -0.67752E-08 -0.36492E-07 -0.44285E-09
  0.40663E-07  0.65104E-07  0.66277E-07  0.26997E-06  0.11754E-05  0.25979E-05
  0.33172E-05  0.35501E-05  0.48283E-05  0.80177E-05  0.11695E-04  0.13146E-04
  0.12407E-04  0.11531E-04  0.11120E-04  0.10263E-04  0.86417E-05  0.70845E-05
  0.60710E-05  0.52438E-05  0.43436E-05  0.37202E-05  0.36860E-05  0.39732E-05
  0.39385E-05  0.32992E-05  0.31227E-05  0.20986E-05  0.12320E-05  0.71507E-06
  0.52766E-06  0.55516E-06  0.56417E-06  0.34425E-06  0.10275E-06  0.40480E-07
  0.10165E-06  0.21249E-06  0.17361E-06  0.84506E-07  0.11141E-06  0.27795E-06
  0.32041E-06  0.90272E-07 -0.10771E-09 -0.36731E-09  0.72789E-07  0.31405E-06
  0.48524E-06  0.68127E-06  0.12395E-05  0.22869E-05  0.36724E-05  0.56462E-05
  0.87744E-05  0.12320E-04  0.14011E-04  0.13406E-04  0.12812E-04  0.13632E-04
  0.14444E-04  0.13154E-04  0.10536E-04  0.88339E-05  0.83546E-05  0.76039E-05
  0.58013E-05  0.40972E-05  0.34906E-05  0.37001E-05  0.37728E-05  0.31227E-05
  0.29828E-05  0.17475E-05  0.93792E-06  0.67118E-06  0.83071E-06  0.12498E-05
  0.13801E-05  0.82441E-06  0.22344E-06  0.48408E-07  0.65756E-07  0.82180E-07
  0.80335E-09 -0.11712E-06 -0.13893E-06  0.34999E-08  0.30243E-06  0.44663E-06
  0.22648E-06  0.15558E-06  0.42662E-06  0.11279E-05  0.17560E-05  0.19518E-05
  0.21395E-05  0.28914E-05  0.46703E-05  0.76810E-05  0.11084E-04  0.12787E-04
  0.11866E-04  0.10359E-04  0.10641E-04  0.12718E-04  0.13986E-04  0.12546E-04
  0.10487E-04  0.10505E-04  0.12365E-04  0.12973E-04  0.10345E-04  0.68031E-05
  0.48457E-05  0.43369E-05  0.39833E-05  0.29828E-05  0.42396E-05  0.24500E-05
  0.12719E-05  0.94505E-06  0.12375E-05  0.17196E-05  0.15406E-05  0.61378E-06
  0.37393E-07 -0.16283E-07 -0.56890E-08  0.88769E-09 -0.23725E-07 -0.28654E-06
 -0.45449E-06 -0.10241E-06  0.78254E-07  0.45996E-06  0.53847E-06  0.49431E-06
  0.76637E-06  0.15631E-05  0.25856E-05  0.32437E-05  0.35982E-05  0.42866E-05
  0.58326E-05  0.81085E-05  0.10009E-04  0.10366E-04  0.96265E-05  0.94963E-05
  0.10950E-04  0.12967E-04  0.13185E-04  0.11331E-04  0.10056E-04  0.11381E-04
  0.14565E-04  0.16012E-04  0.13438E-04  0.93807E-05  0.68866E-05  0.61133E-05
  0.56068E-05  0.42396E-05  0.55768E-05  0.35834E-05  0.19198E-05  0.12304E-05
  0.12219E-05  0.13028E-05  0.90165E-06  0.25262E-06  0.19437E-08 -0.22644E-07
 -0.12399E-08  0.31172E-07  0.52589E-07  0.44487E-08 -0.17760E-07 -0.21783E-07
  0.57409E-08  0.15029E-06  0.36941E-06  0.49749E-06  0.64715E-06  0.10609E-05
  0.19012E-05  0.30613E-05  0.42665E-05  0.54266E-05  0.65877E-05  0.76404E-05
  0.84366E-05  0.92183E-05  0.10569E-04  0.12719E-04  0.14872E-04  0.15574E-04
  0.14396E-04  0.12647E-04  0.11898E-04  0.12511E-04  0.13395E-04  0.12897E-04
  0.10665E-04  0.81499E-05  0.67609E-05  0.65912E-05  0.66091E-05  0.55768E-05
  0.50307E-05  0.37581E-05  0.22657E-05  0.13450E-05  0.95573E-06  0.70638E-06
  0.42844E-06  0.23392E-06  0.17039E-06  0.16202E-06  0.14160E-06  0.13345E-06
  0.18990E-06  0.26184E-06  0.17896E-06  0.27028E-07 -0.47974E-09  0.80842E-08
  0.18771E-06  0.54229E-06  0.72856E-06  0.82637E-06  0.12307E-05  0.22683E-05
  0.39165E-05  0.56527E-05  0.68886E-05  0.75338E-05  0.81952E-05  0.97932E-05
  0.12649E-04  0.15536E-04  0.16477E-04  0.15500E-04  0.14720E-04  0.15329E-04
  0.16118E-04  0.15024E-04  0.12100E-04  0.92472E-05  0.74676E-05  0.64286E-05
  0.57278E-05  0.54260E-05  0.54271E-05  0.50307E-05  0.37523E-05  0.33663E-05
  0.25987E-05  0.17482E-05  0.10271E-05  0.48942E-06  0.25013E-06  0.33035E-06
  0.68337E-06  0.76879E-06  0.25534E-06 -0.10595E-09 -0.40982E-07 -0.17543E-10
  0.35887E-07  0.63375E-08 -0.17577E-07 -0.11643E-08  0.20000E-06  0.93560E-06
  0.14572E-05  0.14740E-05  0.15967E-05  0.23139E-05  0.37113E-05  0.53943E-05
  0.67489E-05  0.75356E-05  0.82189E-05  0.95340E-05  0.11418E-04  0.12437E-04
  0.11585E-04  0.10494E-04  0.11673E-04  0.15534E-04  0.18650E-04  0.16919E-04
  0.12224E-04  0.91122E-05  0.85151E-05  0.84575E-05  0.71381E-05  0.52324E-05
  0.41093E-05  0.37523E-05  0.30799E-05  0.32137E-05  0.32041E-05  0.26114E-05
  0.15198E-05  0.52546E-06  0.13713E-06  0.18136E-06  0.54549E-06  0.61054E-06
  0.61797E-07 -0.26638E-06 -0.78019E-06 -0.44030E-06 -0.68230E-07 -0.10231E-07
 -0.15970E-07  0.39465E-09  0.22407E-06  0.10077E-05  0.18107E-05  0.22127E-05
  0.25272E-05  0.30770E-05  0.38875E-05  0.48837E-05  0.59620E-05  0.68733E-05
  0.74440E-05  0.78684E-05  0.82653E-05  0.82019E-05  0.75239E-05  0.73761E-05
  0.93092E-05  0.13351E-04  0.16181E-04  0.14586E-04  0.11154E-04  0.10024E-04
  0.11601E-04  0.12683E-04  0.10235E-04  0.61957E-05  0.37277E-05  0.30799E-05
  0.26524E-05  0.29157E-05  0.32607E-05  0.29356E-05  0.17588E-05  0.53701E-06
  0.59655E-07  0.21271E-07  0.12475E-06  0.20999E-06  0.40909E-07 -0.45434E-07
 -0.15255E-06 -0.47264E-07  0.31575E-08  0.30501E-07  0.23243E-07  0.26538E-07
  0.85227E-07  0.25305E-06  0.59124E-06  0.12169E-05  0.21291E-05  0.29531E-05
  0.33843E-05  0.37612E-05  0.45909E-05  0.57817E-05  0.66650E-05  0.70332E-05
  0.75077E-05  0.85053E-05  0.96567E-05  0.10552E-04  0.11414E-04  0.12166E-04
  0.11677E-04  0.95576E-05  0.76533E-05  0.78299E-05  0.99350E-05  0.11274E-04
  0.92896E-05  0.56686E-05  0.33126E-05  0.26524E-05  0.23218E-05  0.23110E-05
  0.23649E-05  0.20477E-05  0.12336E-05  0.42040E-06  0.66983E-07  0.12274E-07
  0.30322E-07  0.94969E-07  0.20500E-06  0.40422E-06  0.67400E-06  0.77779E-06
  0.58413E-06  0.32448E-06  0.16900E-06  0.69591E-07  0.28559E-08 -0.20447E-07
 -0.10788E-07  0.79750E-07  0.69916E-06  0.15493E-05  0.19620E-05  0.22635E-05
  0.31955E-05  0.48887E-05  0.64909E-05  0.74789E-05  0.88837E-05  0.11881E-04
  0.15651E-04  0.17279E-04  0.15386E-04  0.11868E-04  0.87837E-05  0.65952E-05
  0.52102E-05  0.46891E-05  0.48985E-05  0.51663E-05  0.47253E-05  0.36731E-05
  0.27424E-05  0.23218E-05  0.25466E-05  0.19550E-05  0.14740E-05  0.10348E-05
  0.61732E-06  0.33880E-06  0.21933E-06  0.15251E-06  0.71239E-07  0.33911E-07
  0.12169E-06  0.58814E-06  0.12310E-05  0.10987E-05  0.43280E-06  0.10494E-06
  0.67367E-07  0.78855E-07  0.14019E-07 -0.34044E-07 -0.96052E-07 -0.32339E-08
  0.17731E-06  0.65011E-06  0.97122E-06  0.13297E-05  0.23419E-05  0.42264E-05
  0.60614E-05  0.70481E-05  0.82052E-05  0.10937E-04  0.14482E-04  0.15517E-04
  0.12732E-04  0.91328E-05  0.72607E-05  0.67499E-05  0.59855E-05  0.43596E-05
  0.28662E-05  0.22971E-05  0.25346E-05  0.29968E-05  0.30284E-05  0.25466E-05
  0.27603E-05  0.16669E-05  0.94339E-06  0.55126E-06  0.38291E-06  0.41162E-06
  0.56997E-06  0.54217E-06  0.17729E-06 -0.41439E-09 -0.45296E-07 -0.19129E-08
  0.27114E-07  0.48832E-08 -0.53686E-07 -0.11199E-06 -0.31152E-08  0.12552E-06
  0.30523E-06  0.24523E-06  0.16936E-06  0.23829E-06  0.47522E-06  0.75498E-06
  0.96404E-06  0.13087E-05  0.21683E-05  0.35833E-05  0.47415E-05  0.49154E-05
  0.47331E-05  0.51465E-05  0.59778E-05  0.60212E-05  0.50404E-05  0.44795E-05
  0.54631E-05  0.75229E-05  0.82795E-05  0.63949E-05  0.39051E-05  0.27728E-05
  0.30055E-05  0.37133E-05  0.37106E-05  0.27603E-05  0.16591E-05  0.85855E-06
  0.44291E-06  0.31323E-06  0.36253E-06  0.57960E-06  0.86325E-06  0.81461E-06
  0.30336E-06  0.76289E-10 -0.17161E-06 -0.31652E-06 -0.32315E-06 -0.36376E-06
 -0.37333E-06 -0.16446E-06  0.18985E-08  0.30652E-06  0.87913E-06  0.13257E-05
  0.15306E-05  0.15339E-05  0.14550E-05  0.14502E-05  0.15983E-05  0.18924E-05
  0.23289E-05  0.28675E-05  0.32400E-05  0.30888E-05  0.24962E-05  0.19086E-05
  0.15408E-05  0.13342E-05  0.13354E-05  0.18744E-05  0.34093E-05  0.57138E-05
  0.71487E-05  0.65212E-05  0.48622E-05  0.36844E-05  0.32981E-05  0.31445E-05
  0.25930E-05  0.16591E-05  0.46530E-06  0.23310E-06  0.11877E-06  0.14545E-06
  0.32486E-06  0.57583E-06  0.66394E-06  0.51609E-06  0.28206E-06  0.10057E-06
  0.10883E-07 -0.92922E-08 -0.57891E-07 -0.58545E-07 -0.33952E-08  0.48842E-07
  0.19917E-06  0.34653E-06  0.58514E-06  0.10670E-05  0.15834E-05  0.16588E-05
  0.14106E-05  0.13669E-05  0.16865E-05  0.20315E-05  0.20304E-05  0.18928E-05
  0.19918E-05  0.22474E-05  0.21949E-05  0.16920E-05  0.11797E-05  0.10168E-05
  0.12339E-05  0.16954E-05  0.21780E-05  0.25744E-05  0.29404E-05  0.32164E-05
  0.30980E-05  0.24441E-05  0.16232E-05  0.10467E-05  0.72240E-06  0.46530E-06
  0.36810E-06  0.27827E-06  0.11976E-06  0.10167E-06  0.22128E-06  0.29702E-06
  0.14256E-06  0.20847E-07  0.19193E-07  0.14342E-06  0.33090E-06  0.24619E-06
  0.67835E-07  0.32933E-07  0.12653E-06  0.27879E-06  0.18206E-06  0.19619E-07
  0.36564E-09  0.47274E-07  0.24623E-06  0.32331E-06  0.24233E-06  0.30368E-06
  0.66345E-06  0.10596E-05  0.98750E-06  0.73201E-06  0.81996E-06  0.13790E-05
  0.19683E-05  0.19742E-05  0.17095E-05  0.18262E-05  0.23626E-05  0.25511E-05
  0.18168E-05  0.93218E-06  0.64842E-06  0.92163E-06  0.12785E-05  0.10103E-05
  0.43471E-06  0.19456E-06  0.24772E-06  0.36810E-06  0.11250E-05  0.95154E-06
  0.39616E-06  0.15091E-06  0.12161E-06  0.57263E-07 -0.14042E-07 -0.22625E-06
 -0.19436E-06 -0.68625E-10  0.15153E-06  0.14766E-06  0.79718E-08 -0.91803E-08
 -0.19502E-09  0.53668E-08 -0.15386E-07 -0.25427E-06 -0.47996E-06 -0.28338E-06
 -0.73283E-07 -0.39200E-07 -0.64899E-07 -0.25269E-07  0.23324E-07  0.17254E-06
  0.16786E-06  0.75863E-07  0.10369E-06  0.37707E-06  0.82546E-06  0.10201E-05
  0.10676E-05  0.14574E-05  0.22307E-05  0.24501E-05  0.14906E-05  0.49539E-06
  0.21709E-06  0.39751E-06  0.72331E-06  0.60171E-06  0.26902E-06  0.23233E-06
  0.60837E-06  0.11250E-05  0.10298E-05  0.85363E-06  0.36179E-06  0.10778E-06
  0.39736E-07  0.17428E-08 -0.71768E-07 -0.31281E-06 -0.31239E-06 -0.68824E-07
  0.40297E-09  0.25235E-09 -0.43855E-07 -0.14140E-06 -0.12652E-06 -0.91924E-07
 -0.16549E-06 -0.37709E-06 -0.49357E-06 -0.34130E-06 -0.17409E-06 -0.14227E-06
 -0.17450E-06 -0.12662E-06 -0.22292E-07  0.11058E-08  0.20373E-08 -0.13518E-08
 -0.41577E-09  0.20898E-07  0.10205E-06  0.15356E-06  0.19309E-06  0.36575E-06
  0.72530E-06  0.91130E-06  0.59995E-06  0.22025E-06  0.11221E-06  0.20451E-06
  0.35995E-06  0.32188E-06  0.20179E-06  0.25985E-06  0.62608E-06  0.10298E-05
 -0.19067E-17 -0.19741E-17 -0.20435E-17 -0.20678E-17 -0.20788E-17 -0.21343E-17
 -0.22202E-17 -0.22736E-17 -0.22901E-17 -0.23299E-17 -0.24149E-17 -0.24971E-17
 -0.25385E-17 -0.25607E-17 -0.25921E-17 -0.26271E-17 -0.26578E-17 -0.26920E-17
 -0.27224E-17 -0.27259E-17 -0.27098E-17 -0.27062E-17 -0.27120E-17 -0.26888E-17
 -0.26336E-17 -0.25895E-17 -0.25694E-17 -0.25312E-17 -0.24539E-17 -0.23761E-17
 -0.23279E-17 -0.22814E-17 -0.22057E-17 -0.21221E-17 -0.20654E-17 -0.20295E-17
 -0.19895E-17 -0.19454E-17 -0.19109E-17 -0.18855E-17 -0.18682E-17 -0.18705E-17
 -0.18888E-17 -0.18954E-17 -0.18874E-17 -0.19067E-17  0.52947E-08  0.43890E-08
  0.18601E-08  0.55412E-09  0.20428E-09  0.89531E-11 -0.36907E-09 -0.16085E-08
 -0.16064E-08 -0.35393E-09  0.20679E-11  0.12942E-11 -0.22554E-09 -0.72714E-09
 -0.65062E-09 -0.47272E-09 -0.85099E-09 -0.19391E-08 -0.25380E-08 -0.17550E-08
 -0.89524E-09 -0.73163E-09 -0.89736E-09 -0.65114E-09 -0.11465E-09  0.56788E-11
  0.10466E-10 -0.69585E-11 -0.21420E-11  0.10742E-09  0.52467E-09  0.78953E-09
  0.99275E-09  0.18805E-08  0.37292E-08  0.46856E-08  0.30847E-08  0.11324E-08
  0.57688E-09  0.10515E-08  0.18507E-08  0.16550E-08  0.10375E-08  0.13360E-08
  0.32191E-08  0.52947E-08 -0.59509E-06 -0.42945E-06 -0.14087E-06 -0.34049E-07
 -0.25205E-07 -0.16026E-07  0.30698E-08  0.78498E-07  0.10790E-06  0.28821E-07
  0.22982E-09  0.33490E-08  0.60328E-07  0.13561E-06  0.10646E-06  0.52792E-07
  0.49092E-07  0.79297E-07  0.74542E-07  0.22400E-07  0.71729E-09  0.34691E-09
  0.59961E-08  0.38666E-08 -0.40026E-08 -0.33191E-07 -0.35322E-07 -0.15501E-07
 -0.13182E-07 -0.35775E-07 -0.65113E-07 -0.59732E-07 -0.50132E-07 -0.96222E-07
 -0.24433E-06 -0.38633E-06 -0.33319E-06 -0.19714E-06 -0.16505E-06 -0.25708E-06
 -0.34565E-06 -0.26572E-06 -0.15161E-06 -0.17729E-06 -0.39377E-06 -0.59509E-06
 -0.70541E-06 -0.53922E-06 -0.19054E-06 -0.72753E-07 -0.95585E-07 -0.90925E-07
 -0.40818E-08  0.48582E-07  0.52506E-07 -0.40779E-08 -0.11288E-06 -0.95941E-07
 -0.57503E-08  0.33211E-08 -0.78416E-09 -0.17032E-07 -0.64914E-09  0.47026E-07
  0.10407E-06  0.32951E-07 -0.29747E-09 -0.37773E-08 -0.35890E-10 -0.48699E-08
 -0.91244E-07 -0.25392E-06 -0.26035E-06 -0.17760E-06 -0.21246E-06 -0.45034E-06