 CRYSTAL
 PRIMVEC
    2.645886043    0.000000000    0.000000000
    0.000000000    2.645886043    0.000000000
    0.000000000    0.000000000    2.645886043
 PRIMCOORD
           2           1
C         4.341738183    3.175063252    3.175063252
O         3.175063252    3.175063252    3.175063252
BEGIN_BLOCK_DATAGRID_3D
3D_PWSCF
DATAGRID_3D_UNKNOWN
          21          21          21
  0.000000  0.000000  0.000000
  2.645886  0.000000  0.000000
  0.000000  2.645886  0.000000
  0.000000  0.000000  2.645886
  0.14949E-03  0.17619E-02  0.41554E-02  0.58013E-02  0.55622E-02  0.35564E-02
  0.11567E-02  0.36418E-05 -0.10726E-02 -0.45230E-02 -0.99227E-02 -0.16266E-01
 -0.21929E-01 -0.25092E-01 -0.24602E-01 -0.20628E-01 -0.14540E-01 -0.82021E-02
 -0.32061E-02 -0.46341E-03  0.14949E-03  0.72671E-03  0.41875E-02  0.88659E-02
  0.11972E-01  0.11470E-01  0.77578E-02  0.31868E-02  0.29488E-03 -0.64452E-03
 -0.45596E-02 -0.11233E-01 -0.19058E-01 -0.26074E-01 -0.30281E-01 -0.30078E-01
 -0.25173E-01 -0.17233E-01 -0.90878E-02 -0.30552E-02 -0.19480E-03  0.72671E-03
  0.17079E-02  0.75454E-02  0.15075E-01  0.19827E-01  0.18763E-01  0.12892E-01
  0.58175E-02  0.95055E-03 -0.33128E-03 -0.44066E-02 -0.11969E-01 -0.20843E-01
 -0.28907E-01 -0.34191E-01 -0.34629E-01 -0.29210E-01 -0.19684E-01 -0.98674E-02
 -0.28921E-02 -0.43267E-04  0.17079E-02  0.27358E-02  0.10725E-01  0.20716E-01
  0.26707E-01  0.24915E-01  0.17102E-01  0.79954E-02  0.15985E-02 -0.16752E-03
 -0.41702E-02 -0.12110E-01 -0.21470E-01 -0.30148E-01 -0.36301E-01 -0.37492E-01
 -0.31993E-01 -0.21452E-01 -0.10428E-01 -0.27625E-02 -0.80715E-06  0.27358E-02
  0.31895E-02  0.12065E-01  0.23035E-01  0.29470E-01  0.27325E-01  0.18713E-01
  0.88252E-02  0.18620E-02 -0.12131E-03 -0.40577E-02 -0.12073E-01 -0.21548E-01
 -0.30419E-01 -0.36911E-01 -0.38445E-01 -0.32985E-01 -0.22103E-01 -0.10636E-01
 -0.27127E-02  0.16184E-05  0.31895E-02  0.27358E-02  0.10725E-01  0.20716E-01
  0.26707E-01  0.24915E-01  0.17102E-01  0.79954E-02  0.15985E-02 -0.16752E-03
 -0.41702E-02 -0.12110E-01 -0.21470E-01 -0.30148E-01 -0.36301E-01 -0.37492E-01
 -0.31993E-01 -0.21452E-01 -0.10428E-01 -0.27625E-02 -0.80715E-06  0.27358E-02
  0.17079E-02  0.75454E-02  0.15075E-01  0.19827E-01  0.18763E-01  0.12892E-01
  0.58175E-02  0.95055E-03 -0.33128E-03 -0.44066E-02 -0.11969E-01 -0.20843E-01
 -0.28907E-01 -0.34191E-01 -0.34629E-01 -0.29210E-01 -0.19684E-01 -0.98674E-02
 -0.28921E-02 -0.43267E-04  0.17079E-02  0.72671E-03  0.41875E-02  0.88659E-02
  0.11972E-01  0.11470E-01  0.77578E-02  0.31868E-02  0.29488E-03 -0.64452E-03
 -0.45596E-02 -0.11233E-01 -0.19058E-01 -0.26074E-01 -0.30281E-01 -0.30078E-01
 -0.25173E-01 -0.17233E-01 -0.90878E-02 -0.30552E-02 -0.19480E-03  0.72671E-03
  0.14949E-03  0.17619E-02  0.41554E-02  0.58013E-02  0.55622E-02  0.35564E-02
  0.11567E-02  0.36418E-05 -0.10726E-02 -0.45230E-02 -0.99227E-02 -0.16266E-01
 -0.21929E-01 -0.25092E-01 -0.24602E-01 -0.20628E-01 -0.14540E-01 -0.82021E-02
 -0.32061E-02 -0.46341E-03  0.14949E-03 -0.17749E-05  0.46640E-03  0.14608E-02
  0.21844E-02  0.20685E-02  0.11512E-02  0.18923E-03 -0.13503E-03 -0.15117E-02
 -0.43736E-02 -0.85209E-02 -0.13350E-01 -0.17614E-01 -0.19845E-01 -0.19297E-01
 -0.16333E-01 -0.11960E-01 -0.72817E-02 -0.33140E-02 -0.81708E-03 -0.17749E-05
 -0.17044E-03  0.22937E-04  0.30385E-03  0.57021E-03  0.52964E-03  0.20251E-03
 -0.21284E-05 -0.46169E-03 -0.18662E-02 -0.42341E-02 -0.74344E-02 -0.11025E-01
 -0.14074E-01 -0.15540E-01 -0.15006E-01 -0.12850E-01 -0.97671E-02 -0.63986E-02
 -0.33586E-02 -0.12067E-02 -0.17044E-03 -0.49456E-03 -0.62754E-04  0.53039E-05
  0.56818E-04  0.48779E-04  0.76965E-07 -0.14234E-03 -0.78264E-03 -0.21100E-02
 -0.41334E-02 -0.66878E-02 -0.93634E-02 -0.11496E-01 -0.12447E-01 -0.11997E-01
 -0.10406E-01 -0.81403E-02 -0.56444E-02 -0.33289E-02 -0.15539E-02 -0.49456E-03
 -0.79914E-03 -0.26697E-03 -0.59716E-04 -0.12518E-04 -0.18203E-04 -0.95034E-04
 -0.37652E-03 -0.10505E-02 -0.22684E-02 -0.40316E-02 -0.61200E-02 -0.81412E-02
 -0.96728E-02 -0.10386E-01 -0.10118E-01 -0.89305E-02 -0.71169E-02 -0.50955E-02
 -0.32406E-02 -0.17805E-02 -0.79914E-03 -0.97976E-03 -0.43413E-03 -0.17871E-03
 -0.10381E-03 -0.13175E-03 -0.27188E-03 -0.60216E-03 -0.12540E-02 -0.23644E-02
 -0.39275E-02 -0.56915E-02 -0.72994E-02 -0.85081E-02 -0.91719E-02 -0.91101E-02
 -0.81956E-02 -0.65993E-02 -0.47770E-02 -0.31454E-02 -0.18760E-02 -0.97976E-03
 -0.10338E-02 -0.49265E-03 -0.23034E-03 -0.15501E-03 -0.19749E-03 -0.36014E-03
 -0.70080E-03 -0.13354E-02 -0.23981E-02 -0.38803E-02 -0.55222E-02 -0.69864E-02
 -0.80960E-02 -0.87643E-02 -0.87939E-02 -0.79804E-02 -0.64483E-02 -0.46748E-02
 -0.31045E-02 -0.18960E-02 -0.10338E-02 -0.97976E-03 -0.43413E-03 -0.17871E-03
 -0.10381E-03 -0.13175E-03 -0.27188E-03 -0.60216E-03 -0.12540E-02 -0.23644E-02
 -0.39275E-02 -0.56915E-02 -0.72994E-02 -0.85081E-02 -0.91719E-02 -0.91101E-02
 -0.81956E-02 -0.65993E-02 -0.47770E-02 -0.31454E-02 -0.18760E-02 -0.97976E-03
 -0.79914E-03 -0.26697E-03 -0.59716E-04 -0.12518E-04 -0.18203E-04 -0.95034E-04
 -0.37652E-03 -0.10505E-02 -0.22684E-02 -0.40316E-02 -0.61200E-02 -0.81412E-02
 -0.96728E-02 -0.10386E-01 -0.10118E-01 -0.89305E-02 -0.71169E-02 -0.50955E-02
 -0.32406E-02 -0.17805E-02 -0.79914E-03 -0.49456E-03 -0.62754E-04  0.53039E-05
  0.56818E-04  0.48779E-04  0.76963E-07 -0.14234E-03 -0.78264E-03 -0.21100E-02
 -0.41334E-02 -0.66878E-02 -0.93634E-02 -0.11496E-01 -0.12447E-01 -0.11997E-01
 -0.10406E-01 -0.81403E-02 -0.56444E-02 -0.33289E-02 -0.15539E-02 -0.49456E-03
 -0.17044E-03  0.22937E-04  0.30385E-03  0.57021E-03  0.52964E-03  0.20251E-03
 -0.21284E-05 -0.46169E-03 -0.18662E-02 -0.42341E-02 -0.74344E-02 -0.11025E-01
 -0.14074E-01 -0.15540E-01 -0.15006E-01 -0.12850E-01 -0.97671E-02 -0.63986E-02
 -0.33586E-02 -0.12067E-02 -0.17044E-03 -0.17749E-05  0.46640E-03  0.14608E-02
  0.21844E-02  0.20685E-02  0.11512E-02  0.18923E-03 -0.13503E-03 -0.15117E-02
 -0.43736E-02 -0.85209E-02 -0.13350E-01 -0.17614E-01 -0.19845E-01 -0.19297E-01
 -0.16333E-01 -0.11960E-01 -0.72817E-02 -0.33140E-02 -0.81708E-03 -0.17749E-05
  0.14949E-03  0.17619E-02  0.41554E-02  0.58013E-02  0.55622E-02  0.35564E-02
  0.11567E-02  0.36418E-05 -0.10726E-02 -0.45230E-02 -0.99227E-02 -0.16266E-01
 -0.21929E-01 -0.25092E-01 -0.24602E-01 -0.20628E-01 -0.14540E-01 -0.82021E-02
 -0.32061E-02 -0.46341E-03  0.14949E-03  0.72671E-03  0.41875E-02  0.88659E-02
  0.11972E-01  0.11470E-01  0.77578E-02  0.31868E-02  0.29488E-03 -0.64452E-03
 -0.45596E-02 -0.11233E-01 -0.19058E-01 -0.26074E-01 -0.30281E-01 -0.30078E-01
 -0.25173E-01 -0.17233E-01 -0.90878E-02 -0.30552E-02 -0.19480E-03  0.72671E-03
  0.23124E-02  0.95195E-02  0.18653E-01  0.24206E-01  0.22646E-01  0.15514E-01
  0.71655E-02  0.13546E-02 -0.21135E-03 -0.42146E-02 -0.12042E-01 -0.21313E-01
 -0.29831E-01 -0.35613E-01 -0.36377E-01 -0.30796E-01 -0.20654E-01 -0.10178E-01
 -0.28258E-02 -0.10926E-04  0.23124E-02  0.47882E-02  0.16923E-01  0.31518E-01
  0.39365E-01  0.35559E-01  0.23915E-01  0.11437E-01  0.27673E-02 -0.19554E-04
 -0.35674E-02 -0.11676E-01 -0.21486E-01 -0.30919E-01 -0.38276E-01 -0.40610E-01
 -0.35202E-01 -0.23521E-01 -0.11071E-01 -0.25765E-02  0.53760E-04  0.47882E-02
  0.72955E-02  0.23905E-01  0.43088E-01  0.52246E-01  0.45751E-01  0.30011E-01
  0.14381E-01  0.38393E-02  0.67772E-05 -0.29489E-02 -0.10716E-01 -0.20355E-01
 -0.30107E-01 -0.38631E-01 -0.42514E-01 -0.37788E-01 -0.25382E-01 -0.11646E-01
 -0.23727E-02  0.24353E-03  0.72955E-02  0.83852E-02  0.26833E-01  0.47805E-01
  0.57319E-01  0.49575E-01  0.32160E-01  0.15369E-01  0.42142E-02  0.25937E-04
 -0.27011E-02 -0.10232E-01 -0.19690E-01 -0.29483E-01 -0.38431E-01 -0.42961E-01
 -0.38605E-01 -0.26020E-01 -0.11843E-01 -0.22932E-02  0.35259E-03  0.83852E-02
  0.72955E-02  0.23905E-01  0.43088E-01  0.52246E-01  0.45751E-01  0.30011E-01
  0.14381E-01  0.38393E-02  0.67772E-05 -0.29489E-02 -0.10716E-01 -0.20355E-01
 -0.30107E-01 -0.38631E-01 -0.42514E-01 -0.37788E-01 -0.25382E-01 -0.11646E-01
 -0.23727E-02  0.24353E-03  0.72955E-02  0.47882E-02  0.16923E-01  0.31518E-01
  0.39365E-01  0.35559E-01  0.23915E-01  0.11437E-01  0.27673E-02 -0.19554E-04
 -0.35674E-02 -0.11676E-01 -0.21486E-01 -0.30919E-01 -0.38276E-01 -0.40610E-01
 -0.35202E-01 -0.23521E-01 -0.11071E-01 -0.25765E-02  0.53760E-04  0.47882E-02
  0.23124E-02  0.95195E-02  0.18653E-01  0.24206E-01  0.22646E-01  0.15514E-01
  0.71655E-02  0.13546E-02 -0.21135E-03 -0.42146E-02 -0.12042E-01 -0.21313E-01
 -0.29831E-01 -0.35613E-01 -0.36377E-01 -0.30796E-01 -0.20654E-01 -0.10178E-01
 -0.28258E-02 -0.10926E-04  0.23124E-02  0.72671E-03  0.41875E-02  0.88659E-02
  0.11972E-01  0.11470E-01  0.77578E-02  0.31868E-02  0.29488E-03 -0.64452E-03
 -0.45596E-02 -0.11233E-01 -0.19058E-01 -0.26074E-01 -0.30281E-01 -0.30078E-01
 -0.25173E-01 -0.17233E-01 -0.90878E-02 -0.30552E-02 -0.19480E-03  0.72671E-03
  0.71649E-04  0.13283E-02  0.33080E-02  0.47005E-02  0.45195E-02  0.28365E-02
  0.84199E-03 -0.23218E-05 -0.11949E-02 -0.45600E-02 -0.97110E-02 -0.15715E-01
 -0.21016E-01 -0.23883E-01 -0.23299E-01 -0.19524E-01 -0.13858E-01 -0.79571E-02
 -0.32394E-02 -0.55300E-03  0.71649E-04 -0.42713E-04  0.21068E-03  0.88661E-03
  0.14168E-02  0.13409E-02  0.68613E-03  0.60790E-04 -0.24172E-03 -0.16688E-02
 -0.44019E-02 -0.82636E-02 -0.12672E-01 -0.16455E-01 -0.18302E-01 -0.17645E-01
 -0.14922E-01 -0.11049E-01 -0.69284E-02 -0.33631E-02 -0.99381E-03 -0.42713E-04
 -0.31448E-03 -0.15197E-05  0.11135E-03  0.27226E-03  0.24565E-03  0.60105E-04
 -0.39923E-04 -0.59948E-03 -0.19885E-02 -0.42456E-02 -0.72220E-02 -0.10453E-01
 -0.13094E-01 -0.14288E-01 -0.13733E-01 -0.11783E-01 -0.90514E-02 -0.60915E-02
 -0.33968E-02 -0.14021E-02 -0.31448E-03 -0.62466E-03 -0.13345E-03 -0.39124E-05
  0.69386E-05  0.30036E-05 -0.20926E-04 -0.24268E-03 -0.90843E-03 -0.21978E-02
 -0.41312E-02 -0.65086E-02 -0.89093E-02 -0.10790E-01 -0.11677E-01 -0.11355E-01
 -0.99480E-02 -0.78332E-02 -0.54852E-02 -0.33327E-02 -0.16718E-02 -0.62466E-03
 -0.82554E-03 -0.29819E-03 -0.84882E-04 -0.32507E-04 -0.48556E-04 -0.15536E-03
 -0.46455E-03 -0.11409E-02 -0.23376E-02 -0.40527E-02 -0.60366E-02 -0.79114E-02
 -0.93660E-02 -0.10170E-01 -0.10102E-01 -0.90479E-02 -0.72199E-02 -0.51202E-02
 -0.32294E-02 -0.17851E-02 -0.82554E-03 -0.88939E-03 -0.36395E-03 -0.13491E-03
 -0.73585E-04 -0.10132E-03 -0.23519E-03 -0.56455E-03 -0.12345E-02 -0.23910E-02
 -0.40223E-02 -0.58610E-02 -0.75515E-02 -0.88699E-02 -0.96687E-02 -0.97100E-02
 -0.87844E-02 -0.70388E-02 -0.49984E-02 -0.31800E-02 -0.18085E-02 -0.88939E-03
 -0.82554E-03 -0.29819E-03 -0.84882E-04 -0.32507E-04 -0.48556E-04 -0.15536E-03
 -0.46455E-03 -0.11409E-02 -0.23376E-02 -0.40527E-02 -0.60366E-02 -0.79114E-02
 -0.93660E-02 -0.10170E-01 -0.10102E-01 -0.90479E-02 -0.72199E-02 -0.51202E-02
 -0.32294E-02 -0.17851E-02 -0.82554E-03 -0.62466E-03 -0.13345E-03 -0.39124E-05
  0.69386E-05  0.30036E-05 -0.20926E-04 -0.24268E-03 -0.90843E-03 -0.21978E-02
 -0.41312E-02 -0.65086E-02 -0.89093E-02 -0.10790E-01 -0.11677E-01 -0.11355E-01
 -0.99480E-02 -0.78332E-02 -0.54852E-02 -0.33327E-02 -0.16718E-02 -0.62466E-03
 -0.31448E-03 -0.15197E-05  0.11135E-03  0.27226E-03  0.24565E-03  0.60105E-04
 -0.39923E-04 -0.59948E-03 -0.19885E-02 -0.42456E-02 -0.72220E-02 -0.10453E-01
 -0.13094E-01 -0.14288E-01 -0.13733E-01 -0.11783E-01 -0.90514E-02 -0.60915E-02
 -0.33968E-02 -0.14021E-02 -0.31448E-03 -0.42713E-04  0.21068E-03  0.88661E-03
  0.14168E-02  0.13409E-02  0.68613E-03  0.60790E-04 -0.24172E-03 -0.16688E-02
 -0.44019E-02 -0.82636E-02 -0.12672E-01 -0.16455E-01 -0.18302E-01 -0.17645E-01
 -0.14922E-01 -0.11049E-01 -0.69284E-02 -0.33631E-02 -0.99381E-03 -0.42713E-04
  0.71649E-04  0.13283E-02  0.33080E-02  0.47005E-02  0.45195E-02  0.28365E-02
  0.84199E-03 -0.23218E-05 -0.11949E-02 -0.45600E-02 -0.97110E-02 -0.15715E-01
 -0.21016E-01 -0.23883E-01 -0.23299E-01 -0.19524E-01 -0.13858E-01 -0.79571E-02
 -0.32394E-02 -0.55300E-03  0.71649E-04  0.72671E-03  0.41875E-02  0.88659E-02
  0.11972E-01  0.11470E-01  0.77578E-02  0.31868E-02  0.29488E-03 -0.64452E-03
 -0.45596E-02 -0.11233E-01 -0.19058E-01 -0.26074E-01 -0.30281E-01 -0.30078E-01
 -0.25173E-01 -0.17233E-01 -0.90878E-02 -0.30552E-02 -0.19480E-03  0.72671E-03
  0.17079E-02  0.75454E-02  0.15075E-01  0.19827E-01  0.18763E-01  0.12892E-01
  0.58175E-02  0.95055E-03 -0.33128E-03 -0.44066E-02 -0.11969E-01 -0.20843E-01
 -0.28907E-01 -0.34191E-01 -0.34629E-01 -0.29210E-01 -0.19684E-01 -0.98674E-02
 -0.28921E-02 -0.43267E-04  0.17079E-02  0.47882E-02  0.16923E-01  0.31518E-01
  0.39365E-01  0.35559E-01  0.23915E-01  0.11437E-01  0.27673E-02 -0.19554E-04
 -0.35674E-02 -0.11676E-01 -0.21486E-01 -0.30919E-01 -0.38276E-01 -0.40610E-01
 -0.35202E-01 -0.23521E-01 -0.11071E-01 -0.25765E-02  0.53760E-04  0.47882E-02
  0.95140E-02  0.30007E-01  0.52995E-01  0.62814E-01  0.53526E-01  0.34213E-01
  0.16254E-01  0.45767E-02  0.60732E-04 -0.24188E-02 -0.96776E-02 -0.18975E-01
 -0.28808E-01 -0.38079E-01 -0.43088E-01 -0.39022E-01 -0.26369E-01 -0.11946E-01
 -0.22251E-02  0.46598E-03  0.95140E-02  0.14261E-01  0.42332E-01  0.72105E-01
  0.82102E-01  0.66616E-01  0.40468E-01  0.18690E-01  0.55841E-02  0.25031E-03
 -0.15304E-02 -0.74489E-02 -0.15565E-01 -0.25085E-01 -0.35546E-01 -0.42883E-01
 -0.40586E-01 -0.27926E-01 -0.12412E-01 -0.19361E-02  0.10761E-02  0.14261E-01
  0.16315E-01  0.47487E-01  0.79838E-01  0.89542E-01  0.71266E-01  0.42374E-01
  0.19284E-01  0.58495E-02  0.34448E-03 -0.12215E-02 -0.65358E-02 -0.14075E-01
 -0.23349E-01 -0.34170E-01 -0.42403E-01 -0.40905E-01 -0.28390E-01 -0.12547E-01
 -0.18239E-02  0.13781E-02  0.16315E-01  0.14261E-01  0.42332E-01  0.72105E-01
  0.82102E-01  0.66616E-01  0.40468E-01  0.18690E-01  0.55841E-02  0.25031E-03
 -0.15304E-02 -0.74489E-02 -0.15565E-01 -0.25085E-01 -0.35546E-01 -0.42883E-01
 -0.40586E-01 -0.27926E-01 -0.12412E-01 -0.19361E-02  0.10761E-02  0.14261E-01
  0.95140E-02  0.30007E-01  0.52995E-01  0.62814E-01  0.53526E-01  0.34213E-01
  0.16254E-01  0.45767E-02  0.60732E-04 -0.24188E-02 -0.96776E-02 -0.18975E-01
 -0.28808E-01 -0.38079E-01 -0.43088E-01 -0.39022E-01 -0.26369E-01 -0.11946E-01
 -0.22251E-02  0.46598E-03  0.95140E-02  0.47882E-02  0.16923E-01  0.31518E-01
  0.39365E-01  0.35559E-01  0.23915E-01  0.11437E-01  0.27673E-02 -0.19554E-04
 -0.35674E-02 -0.11676E-01 -0.21486E-01 -0.30919E-01 -0.38276E-01 -0.40610E-01
 -0.35202E-01 -0.23521E-01 -0.11071E-01 -0.25765E-02  0.53760E-04  0.47882E-02
  0.17079E-02  0.75454E-02  0.15075E-01  0.19827E-01  0.18763E-01  0.12892E-01
  0.58175E-02  0.95055E-03 -0.33128E-03 -0.44066E-02 -0.11969E-01 -0.20843E-01
 -0.28907E-01 -0.34191E-01 -0.34629E-01 -0.29210E-01 -0.19684E-01 -0.98674E-02
 -0.28921E-02 -0.43267E-04  0.17079E-02  0.31768E-03  0.25594E-02  0.57536E-02
  0.79539E-02  0.76796E-02  0.50865E-02  0.18758E-02  0.64834E-04 -0.91486E-03
 -0.46594E-02 -0.10673E-01 -0.17661E-01 -0.23857E-01 -0.27393E-01 -0.26964E-01
 -0.22561E-01 -0.15675E-01 -0.85728E-02 -0.31463E-02 -0.34545E-03  0.31768E-03
 -0.12870E-06  0.55446E-03  0.16943E-02  0.25307E-02  0.24160E-02  0.13890E-02
  0.27022E-03 -0.98750E-04 -0.14855E-02 -0.45258E-02 -0.89671E-02 -0.14086E-01
 -0.18532E-01 -0.20798E-01 -0.20137E-01 -0.16941E-01 -0.12299E-01 -0.74141E-02
 -0.33384E-02 -0.80126E-03 -0.12870E-06 -0.18296E-03  0.23007E-04  0.31873E-03
  0.59378E-03  0.54201E-03  0.20437E-03 -0.19813E-05 -0.45889E-03 -0.18805E-02
 -0.43233E-02 -0.76504E-02 -0.11362E-01 -0.14474E-01 -0.15935E-01 -0.15337E-01
 -0.13083E-01 -0.99086E-02 -0.64912E-02 -0.34335E-02 -0.12553E-02 -0.18296E-03
 -0.49093E-03 -0.55927E-04  0.82821E-05  0.61825E-04  0.46959E-04 -0.23948E-07
 -0.15241E-03 -0.79810E-03 -0.21377E-02 -0.42036E-02 -0.68237E-02 -0.95658E-02
 -0.11771E-01 -0.12813E-01 -0.12430E-01 -0.10818E-01 -0.84405E-02 -0.58130E-02
 -0.34041E-02 -0.15767E-02 -0.49093E-03 -0.72060E-03 -0.21126E-03 -0.34726E-04
 -0.36660E-05 -0.88094E-05 -0.77438E-04 -0.35484E-03 -0.10445E-02 -0.23138E-02
 -0.41635E-02 -0.63556E-02 -0.84928E-02 -0.10171E-01 -0.11054E-01 -0.10904E-01
 -0.96867E-02 -0.76767E-02 -0.53853E-02 -0.33068E-02 -0.17280E-02 -0.72060E-03
 -0.80042E-03 -0.28417E-03 -0.78575E-04 -0.27961E-04 -0.40964E-04 -0.14033E-03
 -0.44687E-03 -0.11415E-02 -0.23830E-02 -0.41570E-02 -0.61970E-02 -0.81223E-02
 -0.96264E-02 -0.10475E-01 -0.10427E-01 -0.93483E-02 -0.74426E-02 -0.52368E-02
 -0.32551E-02 -0.17647E-02 -0.80042E-03 -0.72060E-03 -0.21126E-03 -0.34726E-04
 -0.36660E-05 -0.88094E-05 -0.77438E-04 -0.35484E-03 -0.10445E-02 -0.23138E-02
 -0.41635E-02 -0.63556E-02 -0.84928E-02 -0.10171E-01 -0.11054E-01 -0.10904E-01
 -0.96867E-02 -0.76767E-02 -0.53853E-02 -0.33068E-02 -0.17280E-02 -0.72060E-03
 -0.49093E-03 -0.55927E-04  0.82821E-05  0.61825E-04  0.46959E-04 -0.23949E-07
 -0.15241E-03 -0.79810E-03 -0.21377E-02 -0.42036E-02 -0.68237E-02 -0.95658E-02
 -0.11771E-01 -0.12813E-01 -0.12430E-01 -0.10818E-01 -0.84405E-02 -0.58130E-02
 -0.34041E-02 -0.15767E-02 -0.49093E-03 -0.18296E-03  0.23007E-04  0.31873E-03
  0.59378E-03  0.54201E-03  0.20436E-03 -0.19813E-05 -0.45889E-03 -0.18805E-02
 -0.43233E-02 -0.76504E-02 -0.11362E-01 -0.14474E-01 -0.15935E-01 -0.15337E-01
 -0.13083E-01 -0.99086E-02 -0.64912E-02 -0.34335E-02 -0.12553E-02 -0.18296E-03
 -0.12870E-06  0.55445E-03  0.16943E-02  0.25307E-02  0.24160E-02  0.13890E-02
  0.27022E-03 -0.98750E-04 -0.14855E-02 -0.45258E-02 -0.89671E-02 -0.14086E-01
 -0.18532E-01 -0.20798E-01 -0.20137E-01 -0.16941E-01 -0.12299E-01 -0.74141E-02
 -0.33384E-02 -0.80126E-03 -0.12870E-06  0.31768E-03  0.25594E-02  0.57536E-02
  0.79539E-02  0.76796E-02  0.50865E-02  0.18758E-02  0.64834E-04 -0.91486E-03
 -0.46594E-02 -0.10673E-01 -0.17661E-01 -0.23857E-01 -0.27393E-01 -0.26964E-01
 -0.22561E-01 -0.15675E-01 -0.85728E-02 -0.31463E-02 -0.34545E-03  0.31768E-03
  0.17079E-02  0.75454E-02  0.15075E-01  0.19827E-01  0.18763E-01  0.12892E-01
  0.58175E-02  0.95055E-03 -0.33128E-03 -0.44066E-02 -0.11969E-01 -0.20843E-01
 -0.28907E-01 -0.34191E-01 -0.34629E-01 -0.29210E-01 -0.19684E-01 -0.98674E-02
 -0.28921E-02 -0.43267E-04  0.17079E-02  0.27358E-02  0.10725E-01  0.20716E-01
  0.26707E-01  0.24915E-01  0.17102E-01  0.79954E-02  0.15985E-02 -0.16752E-03
 -0.41702E-02 -0.12110E-01 -0.21470E-01 -0.30148E-01 -0.36301E-01 -0.37492E-01
 -0.31993E-01 -0.21452E-01 -0.10428E-01 -0.27625E-02 -0.80715E-06  0.27358E-02
  0.72955E-02  0.23905E-01  0.43088E-01  0.52246E-01  0.45751E-01  0.30011E-01
  0.14381E-01  0.38393E-02  0.67772E-05 -0.29489E-02 -0.10716E-01 -0.20355E-01
 -0.30107E-01 -0.38631E-01 -0.42514E-01 -0.37788E-01 -0.25382E-01 -0.11646E-01
 -0.23727E-02  0.24353E-03  0.72955E-02  0.14261E-01  0.42332E-01  0.72105E-01
  0.82102E-01  0.66616E-01  0.40468E-01  0.18690E-01  0.55841E-02  0.25031E-03
 -0.15304E-02 -0.74489E-02 -0.15565E-01 -0.25085E-01 -0.35546E-01 -0.42883E-01
 -0.40586E-01 -0.27926E-01 -0.12412E-01 -0.19361E-02  0.10761E-02  0.14261E-01
  0.21243E-01  0.59671E-01  0.97715E-01  0.10603E+00  0.80737E-01  0.45553E-01
  0.19903E-01  0.61871E-02  0.58106E-03 -0.63023E-03 -0.45387E-02 -0.10682E-01
 -0.19209E-01 -0.30547E-01 -0.40583E-01 -0.40930E-01 -0.29013E-01 -0.12714E-01
 -0.15824E-02  0.21571E-02  0.21243E-01  0.24259E-01  0.66912E-01  0.10802E+00
  0.11511E+00  0.85487E-01  0.46752E-01  0.19886E-01  0.62340E-02  0.72006E-03
 -0.37546E-03 -0.34949E-02 -0.87962E-02 -0.16783E-01 -0.28266E-01 -0.39256E-01
 -0.40713E-01 -0.29252E-01 -0.12770E-01 -0.14475E-02  0.26738E-02  0.24259E-01
  0.21243E-01  0.59671E-01  0.97715E-01  0.10603E+00  0.80737E-01  0.45553E-01
  0.19903E-01  0.61871E-02  0.58106E-03 -0.63023E-03 -0.45387E-02 -0.10682E-01
 -0.19209E-01 -0.30547E-01 -0.40583E-01 -0.40930E-01 -0.29013E-01 -0.12714E-01
 -0.15824E-02  0.21571E-02  0.21243E-01  0.14261E-01  0.42332E-01  0.72105E-01
  0.82102E-01  0.66616E-01  0.40468E-01  0.18690E-01  0.55841E-02  0.25031E-03
 -0.15304E-02 -0.74489E-02 -0.15565E-01 -0.25085E-01 -0.35546E-01 -0.42883E-01
 -0.40586E-01 -0.27926E-01 -0.12412E-01 -0.19361E-02  0.10761E-02  0.14261E-01
  0.72955E-02  0.23905E-01  0.43088E-01  0.52246E-01  0.45751E-01  0.30011E-01
  0.14381E-01  0.38393E-02  0.67772E-05 -0.29489E-02 -0.10716E-01 -0.20355E-01
 -0.30107E-01 -0.38631E-01 -0.42514E-01 -0.37788E-01 -0.25382E-01 -0.11646E-01
 -0.23727E-02  0.24353E-03  0.72955E-02  0.27358E-02  0.10725E-01  0.20716E-01
  0.26707E-01  0.24915E-01  0.17102E-01  0.79954E-02  0.15985E-02 -0.16752E-03
 -0.41702E-02 -0.12110E-01 -0.21470E-01 -0.30148E-01 -0.36301E-01 -0.37492E-01
 -0.31993E-01 -0.21452E-01 -0.10428E-01 -0.27625E-02 -0.80715E-06  0.27358E-02
  0.62230E-03  0.37471E-02  0.79981E-02  0.10866E-01  0.10470E-01  0.70866E-02
  0.28571E-02  0.22246E-03 -0.72595E-03 -0.46622E-02 -0.11208E-01 -0.18808E-01
 -0.25609E-01 -0.29713E-01 -0.29565E-01 -0.24830E-01 -0.17069E-01 -0.90421E-02
 -0.30717E-02 -0.21869E-03  0.62230E-03  0.18606E-04  0.91473E-03  0.24496E-02
  0.35404E-02  0.33890E-02  0.20500E-02  0.51584E-03 -0.33838E-04 -0.13500E-02
 -0.45813E-02 -0.94051E-02 -0.14998E-01 -0.19919E-01 -0.22550E-01 -0.21979E-01
 -0.18494E-01 -0.13276E-01 -0.77867E-02 -0.33114E-02 -0.66546E-03  0.18606E-04
 -0.10918E-03  0.82925E-04  0.52951E-03  0.89446E-03  0.82086E-03  0.35855E-03
  0.43768E-05 -0.36957E-03 -0.18014E-02 -0.43635E-02 -0.79231E-02 -0.11963E-01
 -0.15415E-01 -0.17095E-01 -0.16503E-01 -0.14050E-01 -0.10549E-01 -0.67813E-02
 -0.34501E-02 -0.11482E-02 -0.10918E-03 -0.41249E-03 -0.23185E-04  0.37115E-04
  0.12987E-03  0.10791E-03  0.86645E-05 -0.10142E-03 -0.72545E-03 -0.20977E-02
 -0.42557E-02 -0.70472E-02 -0.10033E-01 -0.12466E-01 -0.13605E-01 -0.13159E-01
 -0.11391E-01 -0.88346E-02 -0.60246E-02 -0.34491E-02 -0.15161E-02 -0.41249E-03
 -0.67171E-03 -0.17011E-03 -0.15222E-04  0.32605E-06 -0.26078E-07 -0.37588E-04
 -0.28340E-03 -0.97730E-03 -0.23016E-02 -0.42585E-02 -0.66164E-02 -0.89541E-02
 -0.10779E-01 -0.11667E-01 -0.11397E-01 -0.10030E-01 -0.79094E-02 -0.55299E-02
 -0.33612E-02 -0.17090E-02 -0.67171E-03 -0.76861E-03 -0.25025E-03 -0.53636E-04
 -0.99118E-05 -0.14299E-04 -0.85211E-04 -0.36635E-03 -0.10739E-02 -0.23824E-02
 -0.42761E-02 -0.64856E-02 -0.85970E-02 -0.10217E-01 -0.11037E-01 -0.10845E-01
 -0.96146E-02 -0.76172E-02 -0.53539E-02 -0.33102E-02 -0.17622E-02 -0.76861E-03
 -0.67171E-03 -0.17011E-03 -0.15222E-04  0.32605E-06 -0.26079E-07 -0.37588E-04
 -0.28340E-03 -0.97730E-03 -0.23016E-02 -0.42585E-02 -0.66164E-02 -0.89541E-02
 -0.10779E-01 -0.11667E-01 -0.11397E-01 -0.10030E-01 -0.79094E-02 -0.55299E-02
 -0.33612E-02 -0.17090E-02 -0.67171E-03 -0.41249E-03 -0.23185E-04  0.37114E-04
  0.12987E-03  0.10791E-03  0.86644E-05 -0.10142E-03 -0.72545E-03 -0.20977E-02
 -0.42557E-02 -0.70472E-02 -0.10033E-01 -0.12466E-01 -0.13605E-01 -0.13159E-01
 -0.11391E-01 -0.88346E-02 -0.60246E-02 -0.34491E-02 -0.15161E-02 -0.41249E-03
 -0.10918E-03  0.82925E-04  0.52951E-03  0.89446E-03  0.82086E-03  0.35855E-03
  0.43768E-05 -0.36957E-03 -0.18014E-02 -0.43635E-02 -0.79231E-02 -0.11963E-01
 -0.15415E-01 -0.17095E-01 -0.16503E-01 -0.14050E-01 -0.10549E-01 -0.67813E-02
 -0.34501E-02 -0.11482E-02 -0.10918E-03  0.18606E-04  0.91473E-03  0.24496E-02
  0.35404E-02  0.33890E-02  0.20500E-02  0.51584E-03 -0.33838E-04 -0.13500E-02
 -0.45813E-02 -0.94051E-02 -0.14998E-01 -0.19919E-01 -0.22550E-01 -0.21979E-01
 -0.18494E-01 -0.13276E-01 -0.77867E-02 -0.33114E-02 -0.66546E-03  0.18606E-04
  0.62230E-03  0.37471E-02  0.79981E-02  0.10866E-01  0.10470E-01  0.70866E-02
  0.28571E-02  0.22246E-03 -0.72595E-03 -0.46622E-02 -0.11208E-01 -0.18808E-01
 -0.25609E-01 -0.29713E-01 -0.29565E-01 -0.24830E-01 -0.17069E-01 -0.90421E-02
 -0.30717E-02 -0.21869E-03  0.62230E-03  0.27358E-02  0.10725E-01  0.20716E-01
  0.26707E-01  0.24915E-01  0.17102E-01  0.79954E-02  0.15985E-02 -0.16752E-03
 -0.41702E-02 -0.12110E-01 -0.21470E-01 -0.30148E-01 -0.36301E-01 -0.37492E-01
 -0.31993E-01 -0.21452E-01 -0.10428E-01 -0.27625E-02 -0.80715E-06  0.27358E-02
  0.31895E-02  0.12065E-01  0.23035E-01  0.29470E-01  0.27325E-01  0.18713E-01
  0.88252E-02  0.18620E-02 -0.12131E-03 -0.40577E-02 -0.12073E-01 -0.21548E-01
 -0.30419E-01 -0.36911E-01 -0.38445E-01 -0.32985E-01 -0.22103E-01 -0.10636E-01
 -0.27127E-02  0.16184E-05  0.31895E-02  0.83852E-02  0.26833E-01  0.47805E-01
  0.57319E-01  0.49575E-01  0.32160E-01  0.15369E-01  0.42142E-02  0.25937E-04
 -0.27011E-02 -0.10232E-01 -0.19690E-01 -0.29483E-01 -0.38431E-01 -0.42961E-01
 -0.38605E-01 -0.26020E-01 -0.11843E-01 -0.22932E-02  0.35259E-03  0.83852E-02
  0.16315E-01  0.47487E-01  0.79838E-01  0.89542E-01  0.71266E-01  0.42374E-01
  0.19284E-01  0.58495E-02  0.34448E-03 -0.12215E-02 -0.65358E-02 -0.14075E-01
 -0.23349E-01 -0.34170E-01 -0.42403E-01 -0.40905E-01 -0.28390E-01 -0.12547E-01
 -0.18239E-02  0.13781E-02  0.16315E-01  0.24259E-01  0.66912E-01  0.10802E+00
  0.11511E+00  0.85487E-01  0.46752E-01  0.19886E-01  0.62340E-02  0.72006E-03
 -0.37546E-03 -0.34949E-02 -0.87962E-02 -0.16783E-01 -0.28266E-01 -0.39256E-01
 -0.40713E-01 -0.29252E-01 -0.12770E-01 -0.14475E-02  0.26738E-02  0.24259E-01
  0.27689E-01  0.75019E-01  0.11934E+00  0.12476E+00  0.90152E-01  0.47587E-01
  0.19593E-01  0.61779E-02  0.87127E-03 -0.16998E-03 -0.24739E-02 -0.68595E-02
 -0.14181E-01 -0.25681E-01 -0.37601E-01 -0.40270E-01 -0.29389E-01 -0.12790E-01
 -0.13055E-02  0.32882E-02  0.27689E-01  0.24259E-01  0.66912E-01  0.10802E+00
  0.11511E+00  0.85487E-01  0.46752E-01  0.19886E-01  0.62340E-02  0.72006E-03
 -0.37546E-03 -0.34949E-02 -0.87962E-02 -0.16783E-01 -0.28266E-01 -0.39256E-01
 -0.40713E-01 -0.29252E-01 -0.12770E-01 -0.14475E-02  0.26738E-02  0.24259E-01
  0.16315E-01  0.47487E-01  0.79838E-01  0.89542E-01  0.71266E-01  0.42374E-01
  0.19284E-01  0.58495E-02  0.34448E-03 -0.12215E-02 -0.65358E-02 -0.14075E-01
 -0.23349E-01 -0.34170E-01 -0.42403E-01 -0.40905E-01 -0.28390E-01 -0.12547E-01
 -0.18239E-02  0.13781E-02  0.16315E-01  0.83852E-02  0.26833E-01  0.47805E-01
  0.57319E-01  0.49575E-01  0.32160E-01  0.15369E-01  0.42142E-02  0.25937E-04
 -0.27011E-02 -0.10232E-01 -0.19690E-01 -0.29483E-01 -0.38431E-01 -0.42961E-01
 -0.38605E-01 -0.26020E-01 -0.11843E-01 -0.22932E-02  0.35259E-03  0.83852E-02
  0.31895E-02  0.12065E-01  0.23035E-01  0.29470E-01  0.27325E-01  0.18713E-01
  0.88252E-02  0.18620E-02 -0.12131E-03 -0.40577E-02 -0.12073E-01 -0.21548E-01
 -0.30419E-01 -0.36911E-01 -0.38445E-01 -0.32985E-01 -0.22103E-01 -0.10636E-01
 -0.27127E-02  0.16184E-05  0.31895E-02  0.76478E-03  0.42529E-02  0.89288E-02
  0.12054E-01  0.11596E-01  0.78920E-02  0.32613E-02  0.30290E-03 -0.66022E-03
 -0.46466E-02 -0.11362E-01 -0.19163E-01 -0.26178E-01 -0.30512E-01 -0.30509E-01
 -0.25683E-01 -0.17604E-01 -0.92230E-02 -0.30434E-02 -0.17783E-03  0.76478E-03
  0.37027E-04  0.10730E-02  0.27658E-02  0.39560E-02  0.37884E-02  0.23250E-02
  0.62603E-03 -0.18404E-04 -0.12996E-02 -0.45930E-02 -0.95478E-02 -0.15305E-01
 -0.20401E-01 -0.23181E-01 -0.22666E-01 -0.19089E-01 -0.13655E-01 -0.79308E-02
 -0.33004E-02 -0.61670E-03  0.37027E-04 -0.86669E-04  0.11418E-03  0.61958E-03
  0.10193E-02  0.93706E-03  0.42587E-03  0.11428E-04 -0.33895E-03 -0.17718E-02
 -0.43750E-02 -0.80160E-02 -0.12173E-01 -0.15750E-01 -0.17516E-01 -0.16935E-01
 -0.14413E-01 -0.10791E-01 -0.68893E-02 -0.34547E-02 -0.11089E-02 -0.86669E-04
 -0.38736E-03 -0.15215E-04  0.52006E-04  0.16000E-03  0.13605E-03  0.16614E-04
 -0.85275E-04 -0.69970E-03 -0.20836E-02 -0.42760E-02 -0.71310E-02 -0.10206E-01
 -0.12721E-01 -0.13891E-01 -0.13416E-01 -0.11589E-01 -0.89689E-02 -0.60966E-02
 -0.34646E-02 -0.14959E-02 -0.38736E-03 -0.65952E-03 -0.15897E-03 -0.10652E-04
  0.20420E-05  0.72985E-06 -0.26420E-04 -0.25867E-03 -0.95293E-03 -0.22986E-02
 -0.42984E-02 -0.67220E-02 -0.91359E-02 -0.11010E-01 -0.11888E-01 -0.11558E-01
 -0.10129E-01 -0.79721E-02 -0.55717E-02 -0.33807E-02 -0.17072E-02 -0.65952E-03
 -0.76405E-03 -0.24247E-03 -0.47099E-04 -0.58504E-05 -0.79953E-05 -0.68048E-04
 -0.33785E-03 -0.10489E-02 -0.23840E-02 -0.43266E-02 -0.66048E-02 -0.87882E-02
 -0.10445E-01 -0.11239E-01 -0.10975E-01 -0.96799E-02 -0.76540E-02 -0.53836E-02
 -0.33303E-02 -0.17679E-02 -0.76405E-03 -0.65952E-03 -0.15897E-03 -0.10652E-04
  0.20420E-05  0.72985E-06 -0.26420E-04 -0.25867E-03 -0.95293E-03 -0.22986E-02
 -0.42984E-02 -0.67220E-02 -0.91359E-02 -0.11010E-01 -0.11888E-01 -0.11558E-01
 -0.10129E-01 -0.79721E-02 -0.55717E-02 -0.33807E-02 -0.17072E-02 -0.65952E-03
 -0.38736E-03 -0.15215E-04  0.52006E-04  0.16000E-03  0.13605E-03  0.16614E-04
 -0.85275E-04 -0.69970E-03 -0.20836E-02 -0.42760E-02 -0.71310E-02 -0.10206E-01
 -0.12721E-01 -0.13891E-01 -0.13416E-01 -0.11589E-01 -0.89689E-02 -0.60966E-02
 -0.34646E-02 -0.14959E-02 -0.38736E-03 -0.86669E-04  0.11418E-03  0.61958E-03
  0.10193E-02  0.93706E-03  0.42587E-03  0.11428E-04 -0.33895E-03 -0.17718E-02
 -0.43750E-02 -0.80160E-02 -0.12173E-01 -0.15750E-01 -0.17516E-01 -0.16935E-01
 -0.14413E-01 -0.10791E-01 -0.68893E-02 -0.34547E-02 -0.11089E-02 -0.86669E-04
  0.37027E-04  0.10730E-02  0.27658E-02  0.39560E-02  0.37884E-02  0.23250E-02
  0.62603E-03 -0.18404E-04 -0.12996E-02 -0.45930E-02 -0.95478E-02 -0.15305E-01
 -0.20401E-01 -0.23181E-01 -0.22666E-01 -0.19089E-01 -0.13655E-01 -0.79308E-02
 -0.33004E-02 -0.61670E-03  0.37027E-04  0.76478E-03  0.42529E-02  0.89288E-02
  0.12054E-01  0.11596E-01  0.78920E-02  0.32613E-02  0.30290E-03 -0.66022E-03
 -0.46466E-02 -0.11362E-01 -0.19163E-01 -0.26178E-01 -0.30512E-01 -0.30509E-01
 -0.25683E-01 -0.17604E-01 -0.92230E-02 -0.30434E-02 -0.17783E-03  0.76478E-03
  0.31895E-02  0.12065E-01  0.23035E-01  0.29470E-01  0.27325E-01  0.18713E-01
  0.88252E-02  0.18620E-02 -0.12131E-03 -0.40577E-02 -0.12073E-01 -0.21548E-01
 -0.30419E-01 -0.36911E-01 -0.38445E-01 -0.32985E-01 -0.22103E-01 -0.10636E-01
 -0.27127E-02  0.16184E-05  0.31895E-02  0.27358E-02  0.10725E-01  0.20716E-01
  0.26707E-01  0.24915E-01  0.17102E-01  0.79954E-02  0.15985E-02 -0.16752E-03
 -0.41702E-02 -0.12110E-01 -0.21470E-01 -0.30148E-01 -0.36301E-01 -0.37492E-01
 -0.31993E-01 -0.21452E-01 -0.10428E-01 -0.27625E-02 -0.80715E-06  0.27358E-02
  0.72955E-02  0.23905E-01  0.43088E-01  0.52246E-01  0.45751E-01  0.30011E-01
  0.14381E-01  0.38393E-02  0.67772E-05 -0.29489E-02 -0.10716E-01 -0.20355E-01