 CRYSTAL
 PRIMVEC
   -2.701449650    0.000000000    2.701449650
    0.000000000    2.701449650    2.701449650
   -2.701449650    2.701449650    0.000000000
 PRIMCOORD
           2           1
Si        0.000000000    0.000000000    0.000000000
Si        1.350724825    1.350724825    1.350724825
BEGIN_BLOCK_DATAGRID_3D
3D_PWSCF
DATAGRID_3D_UNKNOWN
          25          25          25
  0.000000  0.000000  0.000000
   -2.701450    0.000000    2.701450
    0.000000    2.701450    2.701450
   -2.701450    2.701450    0.000000
  0.96244E-03  0.48352E-02  0.18039E-01  0.38728E-01  0.56714E-01  0.62878E-01
  0.57885E-01  0.48410E-01  0.39667E-01  0.33220E-01  0.28768E-01  0.25990E-01
  0.25016E-01  0.25990E-01  0.28768E-01  0.33220E-01  0.39667E-01  0.48410E-01
  0.57885E-01  0.62878E-01  0.56714E-01  0.38728E-01  0.18039E-01  0.48352E-02
  0.96244E-03  0.48352E-02  0.12140E-01  0.27533E-01  0.45230E-01  0.55387E-01
  0.54287E-01  0.46269E-01  0.37235E-01  0.30092E-01  0.25102E-01  0.21813E-01
  0.20103E-01  0.20103E-01  0.21813E-01  0.25102E-01  0.30092E-01  0.37235E-01
  0.46269E-01  0.54287E-01  0.55387E-01  0.45230E-01  0.27533E-01  0.12140E-01
  0.48352E-02  0.48352E-02  0.18039E-01  0.27533E-01  0.40572E-01  0.49959E-01
  0.50563E-01  0.43956E-01  0.35132E-01  0.27589E-01  0.22185E-01  0.18547E-01
  0.16346E-01  0.15591E-01  0.16346E-01  0.18547E-01  0.22185E-01  0.27589E-01
  0.35132E-01  0.43956E-01  0.50563E-01  0.49959E-01  0.40572E-01  0.27533E-01
  0.18039E-01  0.14915E-01  0.18039E-01  0.38728E-01  0.45230E-01  0.49959E-01
  0.48975E-01  0.42389E-01  0.33610E-01  0.25779E-01  0.20019E-01  0.16094E-01
  0.13564E-01  0.12281E-01  0.12281E-01  0.13564E-01  0.16094E-01  0.20019E-01
  0.25779E-01  0.33610E-01  0.42389E-01  0.48975E-01  0.49959E-01  0.45230E-01
  0.38728E-01  0.34646E-01  0.34646E-01  0.38728E-01  0.56714E-01  0.55387E-01
  0.50563E-01  0.42389E-01  0.33044E-01  0.24820E-01  0.18682E-01  0.14454E-01
  0.11655E-01  0.10003E-01  0.94489E-02  0.10003E-01  0.11655E-01  0.14454E-01
  0.18682E-01  0.24820E-01  0.33044E-01  0.42389E-01  0.50563E-01  0.55387E-01
  0.56714E-01  0.56328E-01  0.55997E-01  0.56328E-01  0.56714E-01  0.62878E-01
  0.54287E-01  0.43956E-01  0.33610E-01  0.24820E-01  0.18232E-01  0.13641E-01
  0.10556E-01  0.86142E-02  0.76611E-02  0.76611E-02  0.86142E-02  0.10556E-01
  0.13641E-01  0.18232E-01  0.24820E-01  0.33610E-01  0.43956E-01  0.54287E-01
  0.62878E-01  0.68736E-01  0.71645E-01  0.71645E-01  0.68736E-01  0.62878E-01
  0.57885E-01  0.46269E-01  0.35132E-01  0.25779E-01  0.18682E-01  0.13641E-01
  0.10202E-01  0.79716E-02  0.67124E-02  0.63048E-02  0.67124E-02  0.79716E-02
  0.10202E-01  0.13641E-01  0.18682E-01  0.25779E-01  0.35132E-01  0.46269E-01
  0.57885E-01  0.68144E-01  0.75208E-01  0.77729E-01  0.75208E-01  0.68144E-01
  0.57885E-01  0.48410E-01  0.37235E-01  0.27589E-01  0.20019E-01  0.14454E-01
  0.10556E-01  0.79716E-02  0.64212E-02  0.57031E-02  0.57031E-02  0.64212E-02
  0.79716E-02  0.10556E-01  0.14454E-01  0.20019E-01  0.27589E-01  0.37235E-01
  0.48410E-01  0.59740E-01  0.69176E-01  0.74585E-01  0.74585E-01  0.69176E-01
  0.59740E-01  0.48410E-01  0.39667E-01  0.30092E-01  0.22185E-01  0.16094E-01
  0.11655E-01  0.86142E-02  0.67124E-02  0.57031E-02  0.53921E-02  0.57031E-02
  0.67124E-02  0.86142E-02  0.11655E-01  0.16094E-01  0.22185E-01  0.30092E-01
  0.39667E-01  0.50148E-01  0.60000E-01  0.67166E-01  0.69804E-01  0.67166E-01
  0.60000E-01  0.50148E-01  0.39667E-01  0.33220E-01  0.25102E-01  0.18547E-01
  0.13564E-01  0.10003E-01  0.76611E-02  0.63048E-02  0.57031E-02  0.57031E-02
  0.63048E-02  0.76611E-02  0.10003E-01  0.13564E-01  0.18547E-01  0.25102E-01
  0.33220E-01  0.42506E-01  0.51939E-01  0.59867E-01  0.64452E-01  0.64452E-01
  0.59867E-01  0.51939E-01  0.42506E-01  0.33220E-01  0.28768E-01  0.21813E-01
  0.16346E-01  0.12281E-01  0.94489E-02  0.76611E-02  0.67124E-02  0.64212E-02
  0.67124E-02  0.76611E-02  0.94489E-02  0.12281E-01  0.16346E-01  0.21813E-01
  0.28768E-01  0.37029E-01  0.45907E-01  0.54112E-01  0.60000E-01  0.62151E-01
  0.60000E-01  0.54112E-01  0.45907E-01  0.37029E-01  0.28768E-01  0.25990E-01
  0.20103E-01  0.15591E-01  0.12281E-01  0.10003E-01  0.86142E-02  0.79716E-02
  0.79716E-02  0.86142E-02  0.10003E-01  0.12281E-01  0.15591E-01  0.20103E-01
  0.25990E-01  0.33250E-01  0.41432E-01  0.49506E-01  0.56058E-01  0.59740E-01
  0.59740E-01  0.56058E-01  0.49506E-01  0.41432E-01  0.33250E-01  0.25990E-01
  0.25016E-01  0.20103E-01  0.16346E-01  0.13564E-01  0.11655E-01  0.10556E-01
  0.10202E-01  0.10556E-01  0.11655E-01  0.13564E-01  0.16346E-01  0.20103E-01
  0.25016E-01  0.31202E-01  0.38399E-01  0.45778E-01  0.52141E-01  0.56398E-01
  0.57885E-01  0.56398E-01  0.52141E-01  0.45778E-01  0.38399E-01  0.31202E-01
  0.25016E-01  0.25990E-01  0.21813E-01  0.18547E-01  0.16094E-01  0.14454E-01
  0.13641E-01  0.13641E-01  0.14454E-01  0.16094E-01  0.18547E-01  0.21813E-01
  0.25990E-01  0.31202E-01  0.37284E-01  0.43525E-01  0.48872E-01  0.52525E-01
  0.54287E-01  0.54287E-01  0.52525E-01  0.48872E-01  0.43525E-01  0.37284E-01
  0.31202E-01  0.25990E-01  0.28768E-01  0.25102E-01  0.22185E-01  0.20019E-01
  0.18682E-01  0.18232E-01  0.18682E-01  0.20019E-01  0.22185E-01  0.25102E-01
  0.28768E-01  0.33250E-01  0.38399E-01  0.43525E-01  0.47560E-01  0.49815E-01
  0.50563E-01  0.50661E-01  0.50563E-01  0.49815E-01  0.47560E-01  0.43525E-01
  0.38399E-01  0.33250E-01  0.28768E-01  0.33220E-01  0.30092E-01  0.27589E-01
  0.25779E-01  0.24820E-01  0.24820E-01  0.25779E-01  0.27589E-01  0.30092E-01
  0.33220E-01  0.37029E-01  0.41432E-01  0.45778E-01  0.48872E-01  0.49815E-01
  0.48975E-01  0.47870E-01  0.47870E-01  0.48975E-01  0.49815E-01  0.48872E-01
  0.45778E-01  0.41432E-01  0.37029E-01  0.33220E-01  0.39667E-01  0.37235E-01
  0.35132E-01  0.33610E-01  0.33044E-01  0.33610E-01  0.35132E-01  0.37235E-01
  0.39667E-01  0.42506E-01  0.45907E-01  0.49506E-01  0.52141E-01  0.52525E-01
  0.50563E-01  0.47870E-01  0.46639E-01  0.47870E-01  0.50563E-01  0.52525E-01
  0.52141E-01  0.49506E-01  0.45907E-01  0.42506E-01  0.39667E-01  0.48410E-01
  0.46269E-01  0.43956E-01  0.42389E-01  0.42389E-01  0.43956E-01  0.46269E-01
  0.48410E-01  0.50148E-01  0.51939E-01  0.54112E-01  0.56058E-01  0.56398E-01
  0.54287E-01  0.50661E-01  0.47870E-01  0.47870E-01  0.50661E-01  0.54287E-01
  0.56398E-01  0.56058E-01  0.54112E-01  0.51939E-01  0.50148E-01  0.48410E-01
  0.57885E-01  0.54287E-01  0.50563E-01  0.48975E-01  0.50563E-01  0.54287E-01
  0.57885E-01  0.59740E-01  0.60000E-01  0.59867E-01  0.60000E-01  0.59740E-01
  0.57885E-01  0.54287E-01  0.50563E-01  0.48975E-01  0.50563E-01  0.54287E-01
  0.57885E-01  0.59740E-01  0.60000E-01  0.59867E-01  0.60000E-01  0.59740E-01
  0.57885E-01  0.62878E-01  0.55387E-01  0.49959E-01  0.49959E-01  0.55387E-01
  0.62878E-01  0.68144E-01  0.69176E-01  0.67166E-01  0.64452E-01  0.62151E-01
  0.59740E-01  0.56398E-01  0.52525E-01  0.49815E-01  0.49815E-01  0.52525E-01
  0.56398E-01  0.59740E-01  0.62151E-01  0.64452E-01  0.67166E-01  0.69176E-01
  0.68144E-01  0.62878E-01  0.56714E-01  0.45230E-01  0.40572E-01  0.45230E-01
  0.56714E-01  0.68736E-01  0.75208E-01  0.74585E-01  0.69804E-01  0.64452E-01
  0.60000E-01  0.56058E-01  0.52141E-01  0.48872E-01  0.47560E-01  0.48872E-01
  0.52141E-01  0.56058E-01  0.60000E-01  0.64452E-01  0.69804E-01  0.74585E-01
  0.75208E-01  0.68736E-01  0.56714E-01  0.38728E-01  0.27533E-01  0.27533E-01
  0.38728E-01  0.56328E-01  0.71645E-01  0.77729E-01  0.74585E-01  0.67166E-01
  0.59867E-01  0.54112E-01  0.49506E-01  0.45778E-01  0.43525E-01  0.43525E-01
  0.45778E-01  0.49506E-01  0.54112E-01  0.59867E-01  0.67166E-01  0.74585E-01
  0.77729E-01  0.71645E-01  0.56328E-01  0.38728E-01  0.18039E-01  0.12140E-01
  0.18039E-01  0.34646E-01  0.55997E-01  0.71645E-01  0.75208E-01  0.69176E-01
  0.60000E-01  0.51939E-01  0.45907E-01  0.41432E-01  0.38399E-01  0.37284E-01
  0.38399E-01  0.41432E-01  0.45907E-01  0.51939E-01  0.60000E-01  0.69176E-01
  0.75208E-01  0.71645E-01  0.55997E-01  0.34646E-01  0.18039E-01  0.48352E-02
  0.48352E-02  0.14915E-01  0.34646E-01  0.56328E-01  0.68736E-01  0.68144E-01
  0.59740E-01  0.50148E-01  0.42506E-01  0.37029E-01  0.33250E-01  0.31202E-01
  0.31202E-01  0.33250E-01  0.37029E-01  0.42506E-01  0.50148E-01  0.59740E-01
  0.68144E-01  0.68736E-01  0.56328E-01  0.34646E-01  0.14915E-01  0.48352E-02
  0.96244E-03  0.48352E-02  0.18039E-01  0.38728E-01  0.56714E-01  0.62878E-01
  0.57885E-01  0.48410E-01  0.39667E-01  0.33220E-01  0.28768E-01  0.25990E-01
  0.25016E-01  0.25990E-01  0.28768E-01  0.33220E-01  0.39667E-01  0.48410E-01
  0.57885E-01  0.62878E-01  0.56714E-01  0.38728E-01  0.18039E-01  0.48352E-02
  0.96244E-03  0.48352E-02  0.12140E-01  0.27533E-01  0.45230E-01  0.55387E-01
  0.54287E-01  0.46269E-01  0.37235E-01  0.30092E-01  0.25102E-01  0.21813E-01
  0.20103E-01  0.20103E-01  0.21813E-01  0.25102E-01  0.30092E-01  0.37235E-01
  0.46269E-01  0.54287E-01  0.55387E-01  0.45230E-01  0.27533E-01  0.12140E-01
  0.48352E-02  0.48352E-02  0.12140E-01  0.22233E-01  0.36937E-01  0.48472E-01
  0.50661E-01  0.44701E-01  0.35918E-01  0.28234E-01  0.22710E-01  0.19001E-01
  0.16760E-01  0.15990E-01  0.16760E-01  0.19001E-01  0.22710E-01  0.28234E-01
  0.35918E-01  0.44701E-01  0.50661E-01  0.48472E-01  0.36937E-01  0.22233E-01
  0.12140E-01  0.89795E-02  0.12140E-01  0.27533E-01  0.36937E-01  0.45553E-01
  0.47870E-01  0.43033E-01  0.34703E-01  0.26757E-01  0.20806E-01  0.16756E-01
  0.14155E-01  0.12836E-01  0.12836E-01  0.14155E-01  0.16756E-01  0.20806E-01
  0.26757E-01  0.34703E-01  0.43033E-01  0.47870E-01  0.45553E-01  0.36937E-01
  0.27533E-01  0.22178E-01  0.22178E-01  0.27533E-01  0.45230E-01  0.48472E-01
  0.47870E-01  0.42314E-01  0.33951E-01  0.25804E-01  0.19497E-01  0.15129E-01
  0.12245E-01  0.10543E-01  0.99697E-02  0.10543E-01  0.12245E-01  0.15129E-01
  0.19497E-01  0.25804E-01  0.33951E-01  0.42314E-01  0.47870E-01  0.48472E-01
  0.45230E-01  0.41556E-01  0.40079E-01  0.41556E-01  0.45230E-01  0.55387E-01
  0.50661E-01  0.43033E-01  0.33951E-01  0.25476E-01  0.18845E-01  0.14168E-01
  0.11021E-01  0.90288E-02  0.80427E-02  0.80427E-02  0.90288E-02  0.11021E-01
  0.14168E-01  0.18845E-01  0.25476E-01  0.33951E-01  0.43033E-01  0.50661E-01
  0.55387E-01  0.57430E-01  0.58006E-01  0.58006E-01  0.57430E-01  0.55387E-01
  0.54287E-01  0.44701E-01  0.34703E-01  0.25804E-01  0.18845E-01  0.13856E-01
  0.10438E-01  0.81953E-02  0.69056E-02  0.64823E-02  0.69056E-02  0.81953E-02
  0.10438E-01  0.13856E-01  0.18845E-01  0.25804E-01  0.34703E-01  0.44701E-01
  0.54287E-01  0.61977E-01  0.66847E-01  0.68504E-01  0.66847E-01  0.61977E-01
  0.54287E-01  0.46269E-01  0.35918E-01  0.26757E-01  0.19497E-01  0.14168E-01
  0.10438E-01  0.79343E-02  0.63948E-02  0.56628E-02  0.56628E-02  0.63948E-02
  0.79343E-02  0.10438E-01  0.14168E-01  0.19497E-01  0.26757E-01  0.35918E-01
  0.46269E-01  0.56398E-01  0.64538E-01  0.69086E-01  0.69086E-01  0.64538E-01
  0.56398E-01  0.46269E-01  0.37235E-01  0.28234E-01  0.20806E-01  0.15129E-01
  0.11021E-01  0.81953E-02  0.63948E-02  0.54129E-02  0.51041E-02  0.54129E-02
  0.63948E-02  0.81953E-02  0.11021E-01  0.15129E-01  0.20806E-01  0.28234E-01
  0.37235E-01  0.47003E-01  0.56058E-01  0.62556E-01  0.64929E-01  0.62556E-01
  0.56058E-01  0.47003E-01  0.37235E-01  0.30092E-01  0.22710E-01  0.16756E-01
  0.12245E-01  0.90288E-02  0.69056E-02  0.56628E-02  0.51041E-02  0.51041E-02
  0.56628E-02  0.69056E-02  0.90288E-02  0.12245E-01  0.16756E-01  0.22710E-01
  0.30092E-01  0.38510E-01  0.47011E-01  0.54112E-01  0.58200E-01  0.58200E-01
  0.54112E-01  0.47011E-01  0.38510E-01  0.30092E-01  0.25102E-01  0.19001E-01
  0.14155E-01  0.10543E-01  0.80427E-02  0.64823E-02  0.56628E-02  0.54129E-02
  0.56628E-02  0.64823E-02  0.80427E-02  0.10543E-01  0.14155E-01  0.19001E-01
  0.25102E-01  0.32260E-01  0.39884E-01  0.46903E-01  0.51939E-01  0.53780E-01
  0.51939E-01  0.46903E-01  0.39884E-01  0.32260E-01  0.25102E-01  0.21813E-01
  0.16760E-01  0.12836E-01  0.99697E-02  0.80427E-02  0.69056E-02  0.63948E-02
  0.63948E-02  0.69056E-02  0.80427E-02  0.99697E-02  0.12836E-01  0.16760E-01
  0.21813E-01  0.27931E-01  0.34751E-01  0.41489E-01  0.47011E-01  0.50148E-01
  0.50148E-01  0.47011E-01  0.41489E-01  0.34751E-01  0.27931E-01  0.21813E-01
  0.20103E-01  0.15990E-01  0.12836E-01  0.10543E-01  0.90288E-02  0.81953E-02
  0.79343E-02  0.81953E-02  0.90288E-02  0.10543E-01  0.12836E-01  0.15990E-01
  0.20103E-01  0.25229E-01  0.31203E-01  0.37467E-01  0.43084E-01  0.47003E-01
  0.48410E-01  0.47003E-01  0.43084E-01  0.37467E-01  0.31203E-01  0.25229E-01
  0.20103E-01  0.20103E-01  0.16760E-01  0.14155E-01  0.12245E-01  0.11021E-01
  0.10438E-01  0.10438E-01  0.11021E-01  0.12245E-01  0.14155E-01  0.16760E-01
  0.20103E-01  0.24282E-01  0.29288E-01  0.34770E-01  0.39990E-01  0.44058E-01
  0.46269E-01  0.46269E-01  0.44058E-01  0.39990E-01  0.34770E-01  0.29288E-01
  0.24282E-01  0.20103E-01  0.21813E-01  0.19001E-01  0.16756E-01  0.15129E-01
  0.14168E-01  0.13856E-01  0.14168E-01  0.15129E-01  0.16756E-01  0.19001E-01
  0.21813E-01  0.25229E-01  0.29288E-01  0.33789E-01  0.38172E-01  0.41727E-01
  0.43956E-01  0.44701E-01  0.43956E-01  0.41727E-01  0.38172E-01  0.33789E-01
  0.29288E-01  0.25229E-01  0.21813E-01  0.25102E-01  0.22710E-01  0.20806E-01
  0.19497E-01  0.18845E-01  0.18845E-01  0.19497E-01  0.20806E-01  0.22710E-01
  0.25102E-01  0.27931E-01  0.31203E-01  0.34770E-01  0.38172E-01  0.40816E-01
  0.42389E-01  0.43033E-01  0.43033E-01  0.42389E-01  0.40816E-01  0.38172E-01
  0.34770E-01  0.31203E-01  0.27931E-01  0.25102E-01  0.30092E-01  0.28234E-01
  0.26757E-01  0.25804E-01  0.25476E-01  0.25804E-01  0.26757E-01  0.28234E-01
  0.30092E-01  0.32260E-01  0.34751E-01  0.37467E-01  0.39990E-01  0.41727E-01
  0.42389E-01  0.42314E-01  0.42177E-01  0.42314E-01  0.42389E-01  0.41727E-01
  0.39990E-01  0.37467E-01  0.34751E-01  0.32260E-01  0.30092E-01  0.37235E-01
  0.35918E-01  0.34703E-01  0.33951E-01  0.33951E-01  0.34703E-01  0.35918E-01
  0.37235E-01  0.38510E-01  0.39884E-01  0.41489E-01  0.43084E-01  0.44058E-01
  0.43956E-01  0.43033E-01  0.42177E-01  0.42177E-01  0.43033E-01  0.43956E-01
  0.44058E-01  0.43084E-01  0.41489E-01  0.39884E-01  0.38510E-01  0.37235E-01
  0.46269E-01  0.44701E-01  0.43033E-01  0.42314E-01  0.43033E-01  0.44701E-01
  0.46269E-01  0.47003E-01  0.47011E-01  0.46903E-01  0.47011E-01  0.47003E-01
  0.46269E-01  0.44701E-01  0.43033E-01  0.42314E-01  0.43033E-01  0.44701E-01
  0.46269E-01  0.47003E-01  0.47011E-01  0.46903E-01  0.47011E-01  0.47003E-01
  0.46269E-01  0.54287E-01  0.50661E-01  0.47870E-01  0.47870E-01  0.50661E-01
  0.54287E-01  0.56398E-01  0.56058E-01  0.54112E-01  0.51939E-01  0.50148E-01
  0.48410E-01  0.46269E-01  0.43956E-01  0.42389E-01  0.42389E-01  0.43956E-01
  0.46269E-01  0.48410E-01  0.50148E-01  0.51939E-01  0.54112E-01  0.56058E-01
  0.56398E-01  0.54287E-01  0.55387E-01  0.48472E-01  0.45553E-01  0.48472E-01
  0.55387E-01  0.61977E-01  0.64538E-01  0.62556E-01  0.58200E-01  0.53780E-01
  0.50148E-01  0.47003E-01  0.44058E-01  0.41727E-01  0.40816E-01  0.41727E-01
  0.44058E-01  0.47003E-01  0.50148E-01  0.53780E-01  0.58200E-01  0.62556E-01
  0.64538E-01  0.61977E-01  0.55387E-01  0.45230E-01  0.36937E-01  0.36937E-01
  0.45230E-01  0.57430E-01  0.66847E-01  0.69086E-01  0.64929E-01  0.58200E-01
  0.51939E-01  0.47011E-01  0.43084E-01  0.39990E-01  0.38172E-01  0.38172E-01
  0.39990E-01  0.43084E-01  0.47011E-01  0.51939E-01  0.58200E-01  0.64929E-01
  0.69086E-01  0.66847E-01  0.57430E-01  0.45230E-01  0.27533E-01  0.22233E-01
  0.27533E-01  0.41556E-01  0.58006E-01  0.68504E-01  0.69086E-01  0.62556E-01
  0.54112E-01  0.46903E-01  0.41489E-01  0.37467E-01  0.34770E-01  0.33789E-01
  0.34770E-01  0.37467E-01  0.41489E-01  0.46903E-01  0.54112E-01  0.62556E-01
  0.69086E-01  0.68504E-01  0.58006E-01  0.41556E-01  0.27533E-01  0.12140E-01
  0.12140E-01  0.22178E-01  0.40079E-01  0.58006E-01  0.66847E-01  0.64538E-01
  0.56058E-01  0.47011E-01  0.39884E-01  0.34751E-01  0.31203E-01  0.29288E-01
  0.29288E-01  0.31203E-01  0.34751E-01  0.39884E-01  0.47011E-01  0.56058E-01
  0.64538E-01  0.66847E-01  0.58006E-01  0.40079E-01  0.22178E-01  0.12140E-01
  0.48352E-02  0.89795E-02  0.22178E-01  0.41556E-01  0.57430E-01  0.61977E-01
  0.56398E-01  0.47003E-01  0.38510E-01  0.32260E-01  0.27931E-01  0.25229E-01
  0.24282E-01  0.25229E-01  0.27931E-01  0.32260E-01  0.38510E-01  0.47003E-01
  0.56398E-01  0.61977E-01  0.57430E-01  0.41556E-01  0.22178E-01  0.89795E-02
  0.48352E-02  0.48352E-02  0.12140E-01  0.27533E-01  0.45230E-01  0.55387E-01
  0.54287E-01  0.46269E-01  0.37235E-01  0.30092E-01  0.25102E-01  0.21813E-01
  0.20103E-01  0.20103E-01  0.21813E-01  0.25102E-01  0.30092E-01  0.37235E-01
  0.46269E-01  0.54287E-01  0.55387E-01  0.45230E-01  0.27533E-01  0.12140E-01
  0.48352E-02  0.48352E-02  0.18039E-01  0.27533E-01  0.40572E-01  0.49959E-01
  0.50563E-01  0.43956E-01  0.35132E-01  0.27589E-01  0.22185E-01  0.18547E-01
  0.16346E-01  0.15591E-01  0.16346E-01  0.18547E-01  0.22185E-01  0.27589E-01
  0.35132E-01  0.43956E-01  0.50563E-01  0.49959E-01  0.40572E-01  0.27533E-01
  0.18039E-01  0.14915E-01  0.18039E-01  0.27533E-01  0.36937E-01  0.45553E-01
  0.47870E-01  0.43033E-01  0.34703E-01  0.26757E-01  0.20806E-01  0.16756E-01
  0.14155E-01  0.12836E-01  0.12836E-01  0.14155E-01  0.16756E-01  0.20806E-01
  0.26757E-01  0.34703E-01  0.43033E-01  0.47870E-01  0.45553E-01  0.36937E-01
  0.27533E-01  0.22178E-01  0.22178E-01  0.27533E-01  0.40572E-01  0.45553E-01
  0.46639E-01  0.42177E-01  0.34248E-01  0.26153E-01  0.19787E-01  0.15367E-01
  0.12454E-01  0.10737E-01  0.10159E-01  0.10737E-01  0.12454E-01  0.15367E-01
  0.19787E-01  0.26153E-01  0.34248E-01  0.42177E-01  0.46639E-01  0.45553E-01
  0.40572E-01  0.35715E-01  0.33845E-01  0.35715E-01  0.40572E-01  0.49959E-01
  0.47870E-01  0.42177E-01  0.34053E-01  0.25844E-01  0.19197E-01  0.14460E-01
  0.11273E-01  0.92585E-02  0.82598E-02  0.82598E-02  0.92585E-02  0.11273E-01
  0.14460E-01  0.19197E-01  0.25844E-01  0.34053E-01  0.42177E-01  0.47870E-01
  0.49959E-01  0.49509E-01  0.48614E-01  0.48614E-01  0.49509E-01  0.49959E-01
  0.50563E-01  0.43033E-01  0.34248E-01  0.25844E-01  0.19010E-01  0.14031E-01
  0.10605E-01  0.83503E-02  0.70456E-02  0.66152E-02  0.70456E-02  0.83503E-02
  0.10605E-01  0.14031E-01  0.19010E-01  0.25844E-01  0.34248E-01  0.43033E-01
  0.50563E-01  0.55768E-01  0.58589E-01  0.59454E-01  0.58589E-01  0.55768E-01
  0.50563E-01  0.43956E-01  0.34703E-01  0.26153E-01  0.19197E-01  0.14031E-01
  0.10395E-01  0.79319E-02  0.63952E-02  0.56543E-02  0.56543E-02  0.63952E-02
  0.79319E-02  0.10395E-01  0.14031E-01  0.19197E-01  0.26153E-01  0.34703E-01
  0.43956E-01  0.52525E-01  0.59042E-01  0.62537E-01  0.62537E-01  0.59042E-01
  0.52525E-01  0.43956E-01  0.35132E-01  0.26757E-01  0.19787E-01  0.14460E-01
  0.10605E-01  0.79319E-02  0.61945E-02  0.52242E-02  0.49138E-02  0.52242E-02
  0.61945E-02  0.79319E-02  0.10605E-01  0.14460E-01  0.19787E-01  0.26757E-01
  0.35132E-01  0.44058E-01  0.52141E-01  0.57820E-01  0.59868E-01  0.57820E-01
  0.52141E-01  0.44058E-01  0.35132E-01  0.27589E-01  0.20806E-01  0.15367E-01
  0.11273E-01  0.83503E-02  0.63952E-02  0.52242E-02  0.46853E-02  0.46853E-02
  0.52242E-02  0.63952E-02  0.83503E-02  0.11273E-01  0.15367E-01  0.20806E-01
  0.27589E-01  0.35323E-01  0.43084E-01  0.49506E-01  0.53174E-01  0.53174E-01
  0.49506E-01  0.43084E-01  0.35323E-01  0.27589E-01  0.22185E-01  0.16756E-01
  0.12454E-01  0.92585E-02  0.70456E-02  0.56543E-02  0.49138E-02  0.46853E-02
  0.49138E-02  0.56543E-02  0.70456E-02  0.92585E-02  0.12454E-01  0.16756E-01
  0.22185E-01  0.28550E-01  0.35304E-01  0.41489E-01  0.45907E-01  0.47518E-01
  0.45907E-01  0.41489E-01  0.35304E-01  0.28550E-01  0.22185E-01  0.18547E-01
  0.14155E-01  0.10737E-01  0.82598E-02  0.66152E-02  0.56543E-02  0.52242E-02
  0.52242E-02  0.56543E-02  0.66152E-02  0.82598E-02  0.10737E-01  0.14155E-01
  0.18547E-01  0.23808E-01  0.29597E-01  0.35262E-01  0.39884E-01  0.42506E-01
  0.42506E-01  0.39884E-01  0.35262E-01  0.29597E-01  0.23808E-01  0.18547E-01
  0.16346E-01  0.12836E-01  0.10159E-01  0.82598E-02  0.70456E-02  0.63952E-02
  0.61945E-02  0.63952E-02  0.70456E-02  0.82598E-02  0.10159E-01  0.12836E-01
  0.16346E-01  0.20668E-01  0.25612E-01  0.30728E-01  0.35304E-01  0.38510E-01
  0.39667E-01  0.38510E-01  0.35304E-01  0.30728E-01  0.25612E-01  0.20668E-01
  0.16346E-01  0.15591E-01  0.12836E-01  0.10737E-01  0.92585E-02  0.83503E-02
  0.79319E-02  0.79319E-02  0.83503E-02  0.92585E-02  0.10737E-01  0.12836E-01
  0.15591E-01  0.19036E-01  0.23121E-01  0.27584E-01  0.31887E-01  0.35323E-01
  0.37235E-01  0.37235E-01  0.35323E-01  0.31887E-01  0.27584E-01  0.23121E-01
  0.19036E-01  0.15591E-01  0.16346E-01  0.14155E-01  0.12454E-01  0.11273E-01
  0.10605E-01  0.10395E-01  0.10605E-01  0.11273E-01  0.12454E-01  0.14155E-01
  0.16346E-01  0.19036E-01  0.22252E-01  0.25902E-01  0.29640E-01  0.32908E-01
  0.35132E-01  0.35918E-01  0.35132E-01  0.32908E-01  0.29640E-01  0.25902E-01
  0.22252E-01  0.19036E-01  0.16346E-01  0.18547E-01  0.16756E-01  0.15367E-01
  0.14460E-01  0.14031E-01  0.14031E-01  0.14460E-01  0.15367E-01  0.16756E-01
  0.18547E-01  0.20668E-01  0.23121E-01  0.25902E-01  0.28838E-01  0.31552E-01
  0.33610E-01  0.34703E-01  0.34703E-01  0.33610E-01  0.31552E-01  0.28838E-01
  0.25902E-01  0.23121E-01  0.20668E-01  0.18547E-01  0.22185E-01  0.20806E-01
  0.19787E-01  0.19197E-01  0.19010E-01  0.19197E-01  0.19787E-01  0.20806E-01
  0.22185E-01  0.23808E-01  0.25612E-01  0.27584E-01  0.29640E-01  0.31552E-01
  0.33044E-01  0.33951E-01  0.34248E-01  0.33951E-01  0.33044E-01  0.31552E-01
  0.29640E-01  0.27584E-01  0.25612E-01  0.23808E-01  0.22185E-01  0.27589E-01
  0.26757E-01  0.26153E-01  0.25844E-01  0.25844E-01  0.26153E-01  0.26757E-01
  0.27589E-01  0.28550E-01  0.29597E-01  0.30728E-01  0.31887E-01  0.32908E-01
  0.33610E-01  0.33951E-01  0.34053E-01  0.34053E-01  0.33951E-01  0.33610E-01
  0.32908E-01  0.31887E-01  0.30728E-01  0.29597E-01  0.28550E-01  0.27589E-01
  0.35132E-01  0.34703E-01  0.34248E-01  0.34053E-01  0.34248E-01  0.34703E-01
  0.35132E-01  0.35323E-01  0.35304E-01  0.35262E-01  0.35304E-01  0.35323E-01
  0.35132E-01  0.34703E-01  0.34248E-01  0.34053E-01  0.34248E-01  0.34703E-01
  0.35132E-01  0.35323E-01  0.35304E-01  0.35262E-01  0.35304E-01  0.35323E-01
  0.35132E-01  0.43956E-01  0.43033E-01  0.42177E-01  0.42177E-01  0.43033E-01
  0.43956E-01  0.44058E-01  0.43084E-01  0.41489E-01  0.39884E-01  0.38510E-01
  0.37235E-01  0.35918E-01  0.34703E-01  0.33951E-01  0.33951E-01  0.34703E-01
  0.35918E-01  0.37235E-01  0.38510E-01  0.39884E-01  0.41489E-01  0.43084E-01
  0.44058E-01  0.43956E-01  0.50563E-01  0.47870E-01  0.46639E-01  0.47870E-01
  0.50563E-01  0.52525E-01  0.52141E-01  0.49506E-01  0.45907E-01  0.42506E-01
  0.39667E-01  0.37235E-01  0.35132E-01  0.33610E-01  0.33044E-01  0.33610E-01
  0.35132E-01  0.37235E-01  0.39667E-01  0.42506E-01  0.45907E-01  0.49506E-01
  0.52141E-01  0.52525E-01  0.50563E-01  0.49959E-01  0.45553E-01  0.45553E-01
  0.49959E-01  0.55768E-01  0.59042E-01  0.57820E-01  0.53174E-01  0.47518E-01
  0.42506E-01  0.38510E-01  0.35323E-01  0.32908E-01  0.31552E-01  0.31552E-01
  0.32908E-01  0.35323E-01  0.38510E-01  0.42506E-01  0.47518E-01  0.53174E-01
  0.57820E-01  0.59042E-01  0.55768E-01  0.49959E-01  0.40572E-01  0.36937E-01
  0.40572E-01  0.49509E-01  0.58589E-01  0.62537E-01  0.59868E-01  0.53174E-01
  0.45907E-01  0.39884E-01  0.35304E-01  0.31887E-01  0.29640E-01  0.28838E-01
  0.29640E-01  0.31887E-01  0.35304E-01  0.39884E-01  0.45907E-01  0.53174E-01
  0.59868E-01  0.62537E-01  0.58589E-01  0.49509E-01  0.40572E-01  0.27533E-01
  0.27533E-01  0.35715E-01  0.48614E-01  0.59454E-01  0.62537E-01  0.57820E-01
  0.49506E-01  0.41489E-01  0.35262E-01  0.30728E-01  0.27584E-01  0.25902E-01
  0.25902E-01  0.27584E-01  0.30728E-01  0.35262E-01  0.41489E-01  0.49506E-01
  0.57820E-01  0.62537E-01  0.59454E-01  0.48614E-01  0.35715E-01  0.27533E-01
  0.18039E-01  0.22178E-01  0.33845E-01  0.48614E-01  0.58589E-01  0.59042E-01
  0.52141E-01  0.43084E-01  0.35304E-01  0.29597E-01  0.25612E-01  0.23121E-01
  0.22252E-01  0.23121E-01  0.25612E-01  0.29597E-01  0.35304E-01  0.43084E-01
  0.52141E-01  0.59042E-01  0.58589E-01  0.48614E-01  0.33845E-01  0.22178E-01
  0.18039E-01  0.14915E-01  0.22178E-01  0.35715E-01  0.49509E-01  0.55768E-01
  0.52525E-01  0.44058E-01  0.35323E-01  0.28550E-01  0.23808E-01  0.20668E-01
  0.19036E-01  0.19036E-01  0.20668E-01  0.23808E-01  0.28550E-01  0.35323E-01
  0.44058E-01  0.52525E-01  0.55768E-01  0.49509E-01  0.35715E-01  0.22178E-01
  0.14915E-01  0.14915E-01  0.18039E-01  0.27533E-01  0.40572E-01  0.49959E-01
  0.50563E-01  0.43956E-01  0.35132E-01  0.27589E-01  0.22185E-01  0.18547E-01
  0.16346E-01  0.15591E-01  0.16346E-01  0.18547E-01  0.22185E-01  0.27589E-01
  0.35132E-01  0.43956E-01  0.50563E-01  0.49959E-01  0.40572E-01  0.27533E-01
  0.18039E-01  0.14915E-01  0.18039E-01  0.38728E-01  0.45230E-01  0.49959E-01
  0.48975E-01  0.42389E-01  0.33610E-01  0.25779E-01  0.20019E-01  0.16094E-01
  0.13564E-01  0.12281E-01  0.12281E-01  0.13564E-01  0.16094E-01  0.20019E-01
  0.25779E-01  0.33610E-01  0.42389E-01  0.48975E-01  0.49959E-01  0.45230E-01
  0.38728E-01  0.34646E-01  0.34646E-01  0.38728E-01  0.45230E-01  0.48472E-01
  0.47870E-01  0.42314E-01  0.33951E-01  0.25804E-01  0.19497E-01  0.15129E-01
  0.12245E-01  0.10543E-01  0.99697E-02  0.10543E-01  0.12245E-01  0.15129E-01
  0.19497E-01  0.25804E-01  0.33951E-01  0.42314E-01  0.47870E-01  0.48472E-01
  0.45230E-01  0.41556E-01  0.40079E-01  0.41556E-01  0.45230E-01  0.49959E-01
  0.47870E-01  0.42177E-01  0.34053E-01  0.25844E-01  0.19197E-01  0.14460E-01
  0.11273E-01  0.92585E-02  0.82598E-02  0.82598E-02  0.92585E-02  0.11273E-01
  0.14460E-01  0.19197E-01  0.25844E-01  0.34053E-01  0.42177E-01  0.47870E-01
  0.49959E-01  0.49509E-01  0.48614E-01  0.48614E-01  0.49509E-01  0.49959E-01
  0.48975E-01  0.42314E-01  0.34053E-01  0.25865E-01  0.19081E-01  0.14100E-01
  0.10665E-01  0.84052E-02  0.70966E-02  0.66644E-02  0.70966E-02  0.84052E-02
  0.10665E-01  0.14100E-01  0.19081E-01  0.25865E-01  0.34053E-01  0.42314E-01
  0.48975E-01  0.53151E-01  0.55137E-01  0.55683E-01  0.55137E-01  0.53151E-01
  0.48975E-01  0.42389E-01  0.33951E-01  0.25844E-01  0.19081E-01  0.13992E-01
  0.10387E-01  0.79360E-02  0.63991E-02  0.56548E-02  0.56548E-02  0.63991E-02
  0.79360E-02  0.10387E-01  0.13992E-01  0.19081E-01  0.25844E-01  0.33951E-01
  0.42389E-01  0.49815E-01  0.55165E-01  0.57914E-01  0.57914E-01  0.55165E-01
  0.49815E-01  0.42389E-01  0.33610E-01  0.25804E-01  0.19197E-01  0.14100E-01
  0.10387E-01  0.77895E-02  0.60802E-02  0.51136E-02  0.48020E-02  0.51136E-02
  0.60802E-02  0.77895E-02  0.10387E-01  0.14100E-01  0.19197E-01  0.25804E-01
  0.33610E-01  0.41727E-01  0.48872E-01  0.53767E-01  0.55506E-01  0.53767E-01
  0.48872E-01  0.41727E-01  0.33610E-01  0.25779E-01  0.19497E-01  0.14460E-01
  0.10665E-01  0.79360E-02  0.60802E-02  0.49456E-02  0.44143E-02  0.44143E-02
  0.49456E-02  0.60802E-02  0.79360E-02  0.10665E-01  0.14460E-01  0.19497E-01
  0.25779E-01  0.32908E-01  0.39990E-01  0.45778E-01  0.49051E-01  0.49051E-01
  0.45778E-01  0.39990E-01  0.32908E-01  0.25779E-01  0.20019E-01  0.15129E-01
  0.11273E-01  0.84052E-02  0.63991E-02  0.51136E-02  0.44143E-02  0.41951E-02
  0.44143E-02  0.51136E-02  0.63991E-02  0.84052E-02  0.11273E-01  0.15129E-01
  0.20019E-01  0.25776E-01  0.31887E-01  0.37467E-01  0.41432E-01  0.42874E-01
  0.41432E-01  0.37467E-01  0.31887E-01  0.25776E-01  0.20019E-01  0.16094E-01
  0.12245E-01  0.92585E-02  0.70966E-02  0.56548E-02  0.48020E-02  0.44143E-02
  0.44143E-02  0.48020E-02  0.56548E-02  0.70966E-02  0.92585E-02  0.12245E-01
  0.16094E-01  0.20708E-01  0.25780E-01  0.30728E-01  0.34751E-01  0.37029E-01
  0.37029E-01  0.34751E-01  0.30728E-01  0.25780E-01  0.20708E-01  0.16094E-01
  0.13564E-01  0.10543E-01  0.82598E-02  0.66644E-02  0.56548E-02  0.51136E-02
  0.49456E-02  0.51136E-02  0.56548E-02  0.66644E-02  0.82598E-02  0.10543E-01
  0.13564E-01  0.17277E-01  0.21480E-01  0.25781E-01  0.29597E-01  0.32260E-01
  0.33220E-01  0.32260E-01  0.29597E-01  0.25781E-01  0.21480E-01  0.17277E-01
  0.13564E-01  0.12281E-01  0.99697E-02  0.82598E-02  0.70966E-02  0.63991E-02
  0.60802E-02  0.60802E-02  0.63991E-02  0.70966E-02  0.82598E-02  0.99697E-02
  0.12281E-01  0.15197E-01  0.18619E-01  0.22289E-01  0.25780E-01  0.28550E-01
  0.30092E-01  0.30092E-01  0.28550E-01  0.25780E-01  0.22289E-01  0.18619E-01
  0.15197E-01  0.12281E-01  0.12281E-01  0.10543E-01  0.92585E-02  0.84052E-02
  0.79360E-02  0.77895E-02  0.79360E-02  0.84052E-02  0.92585E-02  0.10543E-01
  0.12281E-01  0.14485E-01  0.17136E-01  0.20113E-01  0.23134E-01  0.25776E-01
  0.27589E-01  0.28234E-01  0.27589E-01  0.25776E-01  0.23134E-01  0.20113E-01
  0.17136E-01  0.14485E-01  0.12281E-01  0.13564E-01  0.12245E-01  0.11273E-01
  0.10665E-01  0.10387E-01  0.10387E-01  0.10665E-01  0.11273E-01  0.12245E-01
  0.13564E-01  0.15197E-01  0.17136E-01  0.19359E-01  0.21740E-01  0.24000E-01
  0.25779E-01  0.26757E-01  0.26757E-01  0.25779E-01  0.24000E-01  0.21740E-01
  0.19359E-01  0.17136E-01  0.15197E-01  0.13564E-01  0.16094E-01  0.15129E-01
  0.14460E-01  0.14100E-01  0.13992E-01  0.14100E-01  0.14460E-01  0.15129E-01
  0.16094E-01  0.17277E-01  0.18619E-01  0.20113E-01  0.21740E-01  0.23383E-01
  0.24820E-01  0.25804E-01  0.26153E-01  0.25804E-01  0.24820E-01  0.23383E-01
  0.21740E-01  0.20113E-01  0.18619E-01  0.17277E-01  0.16094E-01  0.20019E-01
  0.19497E-01  0.19197E-01  0.19081E-01  0.19081E-01  0.19197E-01  0.19497E-01
  0.20019E-01  0.20708E-01  0.21480E-01  0.22289E-01  0.23134E-01  0.24000E-01